V -t * -v 1.0a5 -a 0
A -t * -n 1 -p 0 -o 0x7fffffff -c 30 -a 1
A -t * -h 1 -m 1073741823 -s 0
c -t * -i 4 -n yellow
c -t * -i 0 -n blue
c -t * -i 5 -n violet
c -t * -i 1 -n red
c -t * -i 2 -n cyan
c -t * -i 3 -n green
n -t * -a 4 -s 4 -S UP -v circle -c black -i black
n -t * -a 0 -s 0 -S UP -v circle -c black -i black
n -t * -a 1 -s 1 -S UP -v circle -c black -i black
n -t * -a 2 -s 2 -S UP -v circle -c black -i black
n -t * -a 3 -s 3 -S UP -v circle -c black -i black
l -t * -s 0 -d 1 -S UP -r 1000000 -D 0.01 -c black
l -t * -s 1 -d 2 -S UP -r 1000000 -D 0.01 -c black
l -t * -s 2 -d 3 -S UP -r 1000000 -D 0.01 -c black
l -t * -s 3 -d 4 -S UP -r 1000000 -D 0.01 -c black
l -t * -s 4 -d 0 -S UP -r 1000000 -D 0.01 -c black
+ -t 0.000169788487334637 -s 0 -d 1 -p rtProtoDV -e 5 -c 0 -i 0 -a 0 -x {0.1 1.2 -1 ------- null}
- -t 0.000169788487334637 -s 0 -d 1 -p rtProtoDV -e 5 -c 0 -i 0 -a 0 -x {0.1 1.2 -1 ------- null}
h -t 0.000169788487334637 -s 0 -d 1 -p rtProtoDV -e 5 -c 0 -i 0 -a 0 -x {0.1 1.2 -1 ------- null}
+ -t 0.000169788487334637 -s 0 -d 4 -p rtProtoDV -e 5 -c 0 -i 1 -a 0 -x {0.1 4.2 -1 ------- null}
- -t 0.000169788487334637 -s 0 -d 4 -p rtProtoDV -e 5 -c 0 -i 1 -a 0 -x {0.1 4.2 -1 ------- null}
h -t 0.000169788487334637 -s 0 -d 4 -p rtProtoDV -e 5 -c 0 -i 1 -a 0 -x {0.1 4.2 -1 ------- null}
+ -t 0.00710233021858257 -s 2 -d 1 -p rtProtoDV -e 5 -c 0 -i 2 -a 0 -x {2.2 1.2 -1 ------- null}
- -t 0.00710233021858257 -s 2 -d 1 -p rtProtoDV -e 5 -c 0 -i 2 -a 0 -x {2.2 1.2 -1 ------- null}
h -t 0.00710233021858257 -s 2 -d 1 -p rtProtoDV -e 5 -c 0 -i 2 -a 0 -x {2.2 1.2 -1 ------- null}
+ -t 0.00710233021858257 -s 2 -d 3 -p rtProtoDV -e 5 -c 0 -i 3 -a 0 -x {2.2 3.2 -1 ------- null}
- -t 0.00710233021858257 -s 2 -d 3 -p rtProtoDV -e 5 -c 0 -i 3 -a 0 -x {2.2 3.2 -1 ------- null}
h -t 0.00710233021858257 -s 2 -d 3 -p rtProtoDV -e 5 -c 0 -i 3 -a 0 -x {2.2 3.2 -1 ------- null}
r -t 0.0102097884873346 -s 0 -d 1 -p rtProtoDV -e 5 -c 0 -i 0 -a 0 -x {0.1 1.2 -1 ------- null}
+ -t 0.0102097884873346 -s 1 -d 0 -p rtProtoDV -e 5 -c 0 -i 4 -a 0 -x {1.2 0.1 -1 ------- null}
- -t 0.0102097884873346 -s 1 -d 0 -p rtProtoDV -e 5 -c 0 -i 4 -a 0 -x {1.2 0.1 -1 ------- null}
h -t 0.0102097884873346 -s 1 -d 0 -p rtProtoDV -e 5 -c 0 -i 4 -a 0 -x {1.2 0.1 -1 ------- null}
+ -t 0.0102097884873346 -s 1 -d 2 -p rtProtoDV -e 5 -c 0 -i 5 -a 0 -x {1.2 2.2 -1 ------- null}
- -t 0.0102097884873346 -s 1 -d 2 -p rtProtoDV -e 5 -c 0 -i 5 -a 0 -x {1.2 2.2 -1 ------- null}
h -t 0.0102097884873346 -s 1 -d 2 -p rtProtoDV -e 5 -c 0 -i 5 -a 0 -x {1.2 2.2 -1 ------- null}
r -t 0.0102097884873346 -s 0 -d 4 -p rtProtoDV -e 5 -c 0 -i 1 -a 0 -x {0.1 4.2 -1 ------- null}
+ -t 0.0102097884873346 -s 4 -d 0 -p rtProtoDV -e 5 -c 0 -i 6 -a 0 -x {4.2 0.1 -1 ------- null}
- -t 0.0102097884873346 -s 4 -d 0 -p rtProtoDV -e 5 -c 0 -i 6 -a 0 -x {4.2 0.1 -1 ------- null}
h -t 0.0102097884873346 -s 4 -d 0 -p rtProtoDV -e 5 -c 0 -i 6 -a 0 -x {4.2 0.1 -1 ------- null}
+ -t 0.0102097884873346 -s 4 -d 3 -p rtProtoDV -e 5 -c 0 -i 7 -a 0 -x {4.2 3.2 -1 ------- null}
- -t 0.0102097884873346 -s 4 -d 3 -p rtProtoDV -e 5 -c 0 -i 7 -a 0 -x {4.2 3.2 -1 ------- null}
h -t 0.0102097884873346 -s 4 -d 3 -p rtProtoDV -e 5 -c 0 -i 7 -a 0 -x {4.2 3.2 -1 ------- null}
r -t 0.0171423302185826 -s 2 -d 1 -p rtProtoDV -e 5 -c 0 -i 2 -a 0 -x {2.2 1.2 -1 ------- null}
+ -t 0.0171423302185826 -s 1 -d 0 -p rtProtoDV -e 5 -c 0 -i 8 -a 0 -x {1.2 0.1 -1 ------- null}
- -t 0.0171423302185826 -s 1 -d 0 -p rtProtoDV -e 5 -c 0 -i 8 -a 0 -x {1.2 0.1 -1 ------- null}
h -t 0.0171423302185826 -s 1 -d 0 -p rtProtoDV -e 5 -c 0 -i 8 -a 0 -x {1.2 0.1 -1 ------- null}
+ -t 0.0171423302185826 -s 1 -d 2 -p rtProtoDV -e 5 -c 0 -i 9 -a 0 -x {1.2 2.2 -1 ------- null}
- -t 0.0171423302185826 -s 1 -d 2 -p rtProtoDV -e 5 -c 0 -i 9 -a 0 -x {1.2 2.2 -1 ------- null}
h -t 0.0171423302185826 -s 1 -d 2 -p rtProtoDV -e 5 -c 0 -i 9 -a 0 -x {1.2 2.2 -1 ------- null}
r -t 0.0171423302185826 -s 2 -d 3 -p rtProtoDV -e 5 -c 0 -i 3 -a 0 -x {2.2 3.2 -1 ------- null}
+ -t 0.0171423302185826 -s 3 -d 2 -p rtProtoDV -e 5 -c 0 -i 10 -a 0 -x {3.2 2.2 -1 ------- null}
- -t 0.0171423302185826 -s 3 -d 2 -p rtProtoDV -e 5 -c 0 -i 10 -a 0 -x {3.2 2.2 -1 ------- null}
h -t 0.0171423302185826 -s 3 -d 2 -p rtProtoDV -e 5 -c 0 -i 10 -a 0 -x {3.2 2.2 -1 ------- null}
+ -t 0.0171423302185826 -s 3 -d 4 -p rtProtoDV -e 5 -c 0 -i 11 -a 0 -x {3.2 4.2 -1 ------- null}
- -t 0.0171423302185826 -s 3 -d 4 -p rtProtoDV -e 5 -c 0 -i 11 -a 0 -x {3.2 4.2 -1 ------- null}
h -t 0.0171423302185826 -s 3 -d 4 -p rtProtoDV -e 5 -c 0 -i 11 -a 0 -x {3.2 4.2 -1 ------- null}
r -t 0.0202497884873346 -s 1 -d 0 -p rtProtoDV -e 5 -c 0 -i 4 -a 0 -x {1.2 0.1 -1 ------- null}
+ -t 0.0202497884873346 -s 0 -d 1 -p rtProtoDV -e 5 -c 0 -i 12 -a 0 -x {0.1 1.2 -1 ------- null}
- -t 0.0202497884873346 -s 0 -d 1 -p rtProtoDV -e 5 -c 0 -i 12 -a 0 -x {0.1 1.2 -1 ------- null}
h -t 0.0202497884873346 -s 0 -d 1 -p rtProtoDV -e 5 -c 0 -i 12 -a 0 -x {0.1 1.2 -1 ------- null}
+ -t 0.0202497884873346 -s 0 -d 4 -p rtProtoDV -e 5 -c 0 -i 13 -a 0 -x {0.1 4.2 -1 ------- null}
- -t 0.0202497884873346 -s 0 -d 4 -p rtProtoDV -e 5 -c 0 -i 13 -a 0 -x {0.1 4.2 -1 ------- null}
h -t 0.0202497884873346 -s 0 -d 4 -p rtProtoDV -e 5 -c 0 -i 13 -a 0 -x {0.1 4.2 -1 ------- null}
r -t 0.0202497884873346 -s 1 -d 2 -p rtProtoDV -e 5 -c 0 -i 5 -a 0 -x {1.2 2.2 -1 ------- null}
+ -t 0.0202497884873346 -s 2 -d 1 -p rtProtoDV -e 5 -c 0 -i 14 -a 0 -x {2.2 1.2 -1 ------- null}
- -t 0.0202497884873346 -s 2 -d 1 -p rtProtoDV -e 5 -c 0 -i 14 -a 0 -x {2.2 1.2 -1 ------- null}
h -t 0.0202497884873346 -s 2 -d 1 -p rtProtoDV -e 5 -c 0 -i 14 -a 0 -x {2.2 1.2 -1 ------- null}
+ -t 0.0202497884873346 -s 2 -d 3 -p rtProtoDV -e 5 -c 0 -i 15 -a 0 -x {2.2 3.2 -1 ------- null}
- -t 0.0202497884873346 -s 2 -d 3 -p rtProtoDV -e 5 -c 0 -i 15 -a 0 -x {2.2 3.2 -1 ------- null}
h -t 0.0202497884873346 -s 2 -d 3 -p rtProtoDV -e 5 -c 0 -i 15 -a 0 -x {2.2 3.2 -1 ------- null}
r -t 0.0202497884873346 -s 4 -d 0 -p rtProtoDV -e 5 -c 0 -i 6 -a 0 -x {4.2 0.1 -1 ------- null}
+ -t 0.0202497884873346 -s 0 -d 1 -p rtProtoDV -e 5 -c 0 -i 16 -a 0 -x {0.1 1.2 -1 ------- null}
+ -t 0.0202497884873346 -s 0 -d 4 -p rtProtoDV -e 5 -c 0 -i 17 -a 0 -x {0.1 4.2 -1 ------- null}
r -t 0.0202497884873346 -s 4 -d 3 -p rtProtoDV -e 5 -c 0 -i 7 -a 0 -x {4.2 3.2 -1 ------- null}
+ -t 0.0202497884873346 -s 3 -d 2 -p rtProtoDV -e 5 -c 0 -i 18 -a 0 -x {3.2 2.2 -1 ------- null}
- -t 0.0202497884873346 -s 3 -d 2 -p rtProtoDV -e 5 -c 0 -i 18 -a 0 -x {3.2 2.2 -1 ------- null}
h -t 0.0202497884873346 -s 3 -d 2 -p rtProtoDV -e 5 -c 0 -i 18 -a 0 -x {3.2 2.2 -1 ------- null}
+ -t 0.0202497884873346 -s 3 -d 4 -p rtProtoDV -e 5 -c 0 -i 19 -a 0 -x {3.2 4.2 -1 ------- null}
- -t 0.0202497884873346 -s 3 -d 4 -p rtProtoDV -e 5 -c 0 -i 19 -a 0 -x {3.2 4.2 -1 ------- null}
h -t 0.0202497884873346 -s 3 -d 4 -p rtProtoDV -e 5 -c 0 -i 19 -a 0 -x {3.2 4.2 -1 ------- null}
- -t 0.0202897884873346 -s 0 -d 1 -p rtProtoDV -e 5 -c 0 -i 16 -a 0 -x {0.1 1.2 -1 ------- null}
h -t 0.0202897884873346 -s 0 -d 1 -p rtProtoDV -e 5 -c 0 -i 16 -a 0 -x {0.1 1.2 -1 ------- null}
- -t 0.0202897884873346 -s 0 -d 4 -p rtProtoDV -e 5 -c 0 -i 17 -a 0 -x {0.1 4.2 -1 ------- null}
h -t 0.0202897884873346 -s 0 -d 4 -p rtProtoDV -e 5 -c 0 -i 17 -a 0 -x {0.1 4.2 -1 ------- null}
r -t 0.0271823302185826 -s 1 -d 0 -p rtProtoDV -e 5 -c 0 -i 8 -a 0 -x {1.2 0.1 -1 ------- null}
r -t 0.0271823302185826 -s 1 -d 2 -p rtProtoDV -e 5 -c 0 -i 9 -a 0 -x {1.2 2.2 -1 ------- null}
r -t 0.0271823302185826 -s 3 -d 2 -p rtProtoDV -e 5 -c 0 -i 10 -a 0 -x {3.2 2.2 -1 ------- null}
+ -t 0.0271823302185826 -s 2 -d 1 -p rtProtoDV -e 5 -c 0 -i 20 -a 0 -x {2.2 1.2 -1 ------- null}
- -t 0.0271823302185826 -s 2 -d 1 -p rtProtoDV -e 5 -c 0 -i 20 -a 0 -x {2.2 1.2 -1 ------- null}
h -t 0.0271823302185826 -s 2 -d 1 -p rtProtoDV -e 5 -c 0 -i 20 -a 0 -x {2.2 1.2 -1 ------- null}
+ -t 0.0271823302185826 -s 2 -d 3 -p rtProtoDV -e 5 -c 0 -i 21 -a 0 -x {2.2 3.2 -1 ------- null}
- -t 0.0271823302185826 -s 2 -d 3 -p rtProtoDV -e 5 -c 0 -i 21 -a 0 -x {2.2 3.2 -1 ------- null}
h -t 0.0271823302185826 -s 2 -d 3 -p rtProtoDV -e 5 -c 0 -i 21 -a 0 -x {2.2 3.2 -1 ------- null}
r -t 0.0271823302185826 -s 3 -d 4 -p rtProtoDV -e 5 -c 0 -i 11 -a 0 -x {3.2 4.2 -1 ------- null}
+ -t 0.0271823302185826 -s 4 -d 0 -p rtProtoDV -e 5 -c 0 -i 22 -a 0 -x {4.2 0.1 -1 ------- null}
- -t 0.0271823302185826 -s 4 -d 0 -p rtProtoDV -e 5 -c 0 -i 22 -a 0 -x {4.2 0.1 -1 ------- null}
h -t 0.0271823302185826 -s 4 -d 0 -p rtProtoDV -e 5 -c 0 -i 22 -a 0 -x {4.2 0.1 -1 ------- null}
+ -t 0.0271823302185826 -s 4 -d 3 -p rtProtoDV -e 5 -c 0 -i 23 -a 0 -x {4.2 3.2 -1 ------- null}
- -t 0.0271823302185826 -s 4 -d 3 -p rtProtoDV -e 5 -c 0 -i 23 -a 0 -x {4.2 3.2 -1 ------- null}
h -t 0.0271823302185826 -s 4 -d 3 -p rtProtoDV -e 5 -c 0 -i 23 -a 0 -x {4.2 3.2 -1 ------- null}
r -t 0.0302897884873346 -s 0 -d 1 -p rtProtoDV -e 5 -c 0 -i 12 -a 0 -x {0.1 1.2 -1 ------- null}
r -t 0.0302897884873346 -s 0 -d 4 -p rtProtoDV -e 5 -c 0 -i 13 -a 0 -x {0.1 4.2 -1 ------- null}
r -t 0.0302897884873346 -s 2 -d 1 -p rtProtoDV -e 5 -c 0 -i 14 -a 0 -x {2.2 1.2 -1 ------- null}
r -t 0.0302897884873346 -s 2 -d 3 -p rtProtoDV -e 5 -c 0 -i 15 -a 0 -x {2.2 3.2 -1 ------- null}
r -t 0.0302897884873346 -s 3 -d 2 -p rtProtoDV -e 5 -c 0 -i 18 -a 0 -x {3.2 2.2 -1 ------- null}
r -t 0.0302897884873346 -s 3 -d 4 -p rtProtoDV -e 5 -c 0 -i 19 -a 0 -x {3.2 4.2 -1 ------- null}
r -t 0.0303297884873346 -s 0 -d 1 -p rtProtoDV -e 5 -c 0 -i 16 -a 0 -x {0.1 1.2 -1 ------- null}
r -t 0.0303297884873346 -s 0 -d 4 -p rtProtoDV -e 5 -c 0 -i 17 -a 0 -x {0.1 4.2 -1 ------- null}
r -t 0.0372223302185826 -s 2 -d 1 -p rtProtoDV -e 5 -c 0 -i 20 -a 0 -x {2.2 1.2 -1 ------- null}
r -t 0.0372223302185826 -s 2 -d 3 -p rtProtoDV -e 5 -c 0 -i 21 -a 0 -x {2.2 3.2 -1 ------- null}
r -t 0.0372223302185826 -s 4 -d 0 -p rtProtoDV -e 5 -c 0 -i 22 -a 0 -x {4.2 0.1 -1 ------- null}
r -t 0.0372223302185826 -s 4 -d 3 -p rtProtoDV -e 5 -c 0 -i 23 -a 0 -x {4.2 3.2 -1 ------- null}
+ -t 0.04406133552271 -s 3 -d 2 -p rtProtoDV -e 5 -c 0 -i 24 -a 0 -x {3.2 2.2 -1 ------- null}
- -t 0.04406133552271 -s 3 -d 2 -p rtProtoDV -e 5 -c 0 -i 24 -a 0 -x {3.2 2.2 -1 ------- null}
h -t 0.04406133552271 -s 3 -d 2 -p rtProtoDV -e 5 -c 0 -i 24 -a 0 -x {3.2 2.2 -1 ------- null}
+ -t 0.04406133552271 -s 3 -d 4 -p rtProtoDV -e 5 -c 0 -i 25 -a 0 -x {3.2 4.2 -1 ------- null}
- -t 0.04406133552271 -s 3 -d 4 -p rtProtoDV -e 5 -c 0 -i 25 -a 0 -x {3.2 4.2 -1 ------- null}
h -t 0.04406133552271 -s 3 -d 4 -p rtProtoDV -e 5 -c 0 -i 25 -a 0 -x {3.2 4.2 -1 ------- null}
r -t 0.05410133552271 -s 3 -d 2 -p rtProtoDV -e 5 -c 0 -i 24 -a 0 -x {3.2 2.2 -1 ------- null}
r -t 0.05410133552271 -s 3 -d 4 -p rtProtoDV -e 5 -c 0 -i 25 -a 0 -x {3.2 4.2 -1 ------- null}
+ -t 0.22058669092161 -s 4 -d 0 -p rtProtoDV -e 5 -c 0 -i 26 -a 0 -x {4.2 0.1 -1 ------- null}
- -t 0.22058669092161 -s 4 -d 0 -p rtProtoDV -e 5 -c 0 -i 26 -a 0 -x {4.2 0.1 -1 ------- null}
h -t 0.22058669092161 -s 4 -d 0 -p rtProtoDV -e 5 -c 0 -i 26 -a 0 -x {4.2 0.1 -1 ------- null}
+ -t 0.22058669092161 -s 4 -d 3 -p rtProtoDV -e 5 -c 0 -i 27 -a 0 -x {4.2 3.2 -1 ------- null}
- -t 0.22058669092161 -s 4 -d 3 -p rtProtoDV -e 5 -c 0 -i 27 -a 0 -x {4.2 3.2 -1 ------- null}
h -t 0.22058669092161 -s 4 -d 3 -p rtProtoDV -e 5 -c 0 -i 27 -a 0 -x {4.2 3.2 -1 ------- null}
r -t 0.23062669092161 -s 4 -d 0 -p rtProtoDV -e 5 -c 0 -i 26 -a 0 -x {4.2 0.1 -1 ------- null}
r -t 0.23062669092161 -s 4 -d 3 -p rtProtoDV -e 5 -c 0 -i 27 -a 0 -x {4.2 3.2 -1 ------- null}
+ -t 0.277940357931862 -s 1 -d 0 -p rtProtoDV -e 5 -c 0 -i 28 -a 0 -x {1.2 0.1 -1 ------- null}
- -t 0.277940357931862 -s 1 -d 0 -p rtProtoDV -e 5 -c 0 -i 28 -a 0 -x {1.2 0.1 -1 ------- null}
h -t 0.277940357931862 -s 1 -d 0 -p rtProtoDV -e 5 -c 0 -i 28 -a 0 -x {1.2 0.1 -1 ------- null}
+ -t 0.277940357931862 -s 1 -d 2 -p rtProtoDV -e 5 -c 0 -i 29 -a 0 -x {1.2 2.2 -1 ------- null}
- -t 0.277940357931862 -s 1 -d 2 -p rtProtoDV -e 5 -c 0 -i 29 -a 0 -x {1.2 2.2 -1 ------- null}
h -t 0.277940357931862 -s 1 -d 2 -p rtProtoDV -e 5 -c 0 -i 29 -a 0 -x {1.2 2.2 -1 ------- null}
r -t 0.287980357931862 -s 1 -d 0 -p rtProtoDV -e 5 -c 0 -i 28 -a 0 -x {1.2 0.1 -1 ------- null}
r -t 0.287980357931862 -s 1 -d 2 -p rtProtoDV -e 5 -c 0 -i 29 -a 0 -x {1.2 2.2 -1 ------- null}
+ -t 0.5 -s 1 -d 0 -p tcp -e 40 -c 0 -i 30 -a 0 -x {1.0 4.0 0 ------- null}
- -t 0.5 -s 1 -d 0 -p tcp -e 40 -c 0 -i 30 -a 0 -x {1.0 4.0 0 ------- null}
h -t 0.5 -s 1 -d 0 -p tcp -e 40 -c 0 -i 30 -a 0 -x {1.0 4.0 -1 ------- null}
+ -t 0.5 -s 2 -d 3 -p tcp -e 40 -c 1 -i 31 -a 1 -x {2.0 3.0 0 ------- null}
- -t 0.5 -s 2 -d 3 -p tcp -e 40 -c 1 -i 31 -a 1 -x {2.0 3.0 0 ------- null}
h -t 0.5 -s 2 -d 3 -p tcp -e 40 -c 1 -i 31 -a 1 -x {2.0 3.0 -1 ------- null}
r -t 0.51032 -s 1 -d 0 -p tcp -e 40 -c 0 -i 30 -a 0 -x {1.0 4.0 0 ------- null}
+ -t 0.51032 -s 0 -d 4 -p tcp -e 40 -c 0 -i 30 -a 0 -x {1.0 4.0 0 ------- null}
- -t 0.51032 -s 0 -d 4 -p tcp -e 40 -c 0 -i 30 -a 0 -x {1.0 4.0 0 ------- null}
h -t 0.51032 -s 0 -d 4 -p tcp -e 40 -c 0 -i 30 -a 0 -x {1.0 4.0 -1 ------- null}
r -t 0.51032 -s 2 -d 3 -p tcp -e 40 -c 1 -i 31 -a 1 -x {2.0 3.0 0 ------- null}
+ -t 0.51032 -s 3 -d 2 -p ack -e 40 -c 1 -i 32 -a 1 -x {3.0 2.0 0 ------- null}
- -t 0.51032 -s 3 -d 2 -p ack -e 40 -c 1 -i 32 -a 1 -x {3.0 2.0 0 ------- null}
h -t 0.51032 -s 3 -d 2 -p ack -e 40 -c 1 -i 32 -a 1 -x {3.0 2.0 -1 ------- null}
r -t 0.52064 -s 0 -d 4 -p tcp -e 40 -c 0 -i 30 -a 0 -x {1.0 4.0 0 ------- null}
+ -t 0.52064 -s 4 -d 0 -p ack -e 40 -c 0 -i 33 -a 0 -x {4.0 1.0 0 ------- null}
- -t 0.52064 -s 4 -d 0 -p ack -e 40 -c 0 -i 33 -a 0 -x {4.0 1.0 0 ------- null}
h -t 0.52064 -s 4 -d 0 -p ack -e 40 -c 0 -i 33 -a 0 -x {4.0 1.0 -1 ------- null}
r -t 0.52064 -s 3 -d 2 -p ack -e 40 -c 1 -i 32 -a 1 -x {3.0 2.0 0 ------- null}
+ -t 0.52064 -s 2 -d 3 -p tcp -e 1040 -c 1 -i 34 -a 1 -x {2.0 3.0 1 ------- null}
- -t 0.52064 -s 2 -d 3 -p tcp -e 1040 -c 1 -i 34 -a 1 -x {2.0 3.0 1 ------- null}
h -t 0.52064 -s 2 -d 3 -p tcp -e 1040 -c 1 -i 34 -a 1 -x {2.0 3.0 -1 ------- null}
+ -t 0.52064 -s 2 -d 3 -p tcp -e 1040 -c 1 -i 35 -a 1 -x {2.0 3.0 2 ------- null}
- -t 0.52896 -s 2 -d 3 -p tcp -e 1040 -c 1 -i 35 -a 1 -x {2.0 3.0 2 ------- null}
h -t 0.52896 -s 2 -d 3 -p tcp -e 1040 -c 1 -i 35 -a 1 -x {2.0 3.0 -1 ------- null}
r -t 0.53096 -s 4 -d 0 -p ack -e 40 -c 0 -i 33 -a 0 -x {4.0 1.0 0 ------- null}
+ -t 0.53096 -s 0 -d 1 -p ack -e 40 -c 0 -i 33 -a 0 -x {4.0 1.0 0 ------- null}
- -t 0.53096 -s 0 -d 1 -p ack -e 40 -c 0 -i 33 -a 0 -x {4.0 1.0 0 ------- null}
h -t 0.53096 -s 0 -d 1 -p ack -e 40 -c 0 -i 33 -a 0 -x {4.0 1.0 -1 ------- null}
r -t 0.53896 -s 2 -d 3 -p tcp -e 1040 -c 1 -i 34 -a 1 -x {2.0 3.0 1 ------- null}
r -t 0.54128 -s 0 -d 1 -p ack -e 40 -c 0 -i 33 -a 0 -x {4.0 1.0 0 ------- null}
+ -t 0.54128 -s 1 -d 0 -p tcp -e 1040 -c 0 -i 36 -a 0 -x {1.0 4.0 1 ------- null}
- -t 0.54128 -s 1 -d 0 -p tcp -e 1040 -c 0 -i 36 -a 0 -x {1.0 4.0 1 ------- null}
h -t 0.54128 -s 1 -d 0 -p tcp -e 1040 -c 0 -i 36 -a 0 -x {1.0 4.0 -1 ------- null}
+ -t 0.54128 -s 1 -d 0 -p tcp -e 1040 -c 0 -i 37 -a 0 -x {1.0 4.0 2 ------- null}
r -t 0.54728 -s 2 -d 3 -p tcp -e 1040 -c 1 -i 35 -a 1 -x {2.0 3.0 2 ------- null}
+ -t 0.54728 -s 3 -d 2 -p ack -e 40 -c 1 -i 38 -a 1 -x {3.0 2.0 2 ------- null}
- -t 0.54728 -s 3 -d 2 -p ack -e 40 -c 1 -i 38 -a 1 -x {3.0 2.0 2 ------- null}
h -t 0.54728 -s 3 -d 2 -p ack -e 40 -c 1 -i 38 -a 1 -x {3.0 2.0 -1 ------- null}
- -t 0.5496 -s 1 -d 0 -p tcp -e 1040 -c 0 -i 37 -a 0 -x {1.0 4.0 2 ------- null}
h -t 0.5496 -s 1 -d 0 -p tcp -e 1040 -c 0 -i 37 -a 0 -x {1.0 4.0 -1 ------- null}
r -t 0.5576 -s 3 -d 2 -p ack -e 40 -c 1 -i 38 -a 1 -x {3.0 2.0 2 ------- null}
+ -t 0.5576 -s 2 -d 3 -p tcp -e 1040 -c 1 -i 39 -a 1 -x {2.0 3.0 3 ------- null}
- -t 0.5576 -s 2 -d 3 -p tcp -e 1040 -c 1 -i 39 -a 1 -x {2.0 3.0 3 ------- null}
h -t 0.5576 -s 2 -d 3 -p tcp -e 1040 -c 1 -i 39 -a 1 -x {2.0 3.0 -1 ------- null}
+ -t 0.5576 -s 2 -d 3 -p tcp -e 1040 -c 1 -i 40 -a 1 -x {2.0 3.0 4 ------- null}
+ -t 0.5576 -s 2 -d 3 -p tcp -e 1040 -c 1 -i 41 -a 1 -x {2.0 3.0 5 ------- null}
r -t 0.5596 -s 1 -d 0 -p tcp -e 1040 -c 0 -i 36 -a 0 -x {1.0 4.0 1 ------- null}
+ -t 0.5596 -s 0 -d 4 -p tcp -e 1040 -c 0 -i 36 -a 0 -x {1.0 4.0 1 ------- null}
- -t 0.5596 -s 0 -d 4 -p tcp -e 1040 -c 0 -i 36 -a 0 -x {1.0 4.0 1 ------- null}
h -t 0.5596 -s 0 -d 4 -p tcp -e 1040 -c 0 -i 36 -a 0 -x {1.0 4.0 -1 ------- null}
- -t 0.56592 -s 2 -d 3 -p tcp -e 1040 -c 1 -i 40 -a 1 -x {2.0 3.0 4 ------- null}
h -t 0.56592 -s 2 -d 3 -p tcp -e 1040 -c 1 -i 40 -a 1 -x {2.0 3.0 -1 ------- null}
r -t 0.56792 -s 1 -d 0 -p tcp -e 1040 -c 0 -i 37 -a 0 -x {1.0 4.0 2 ------- null}
+ -t 0.56792 -s 0 -d 4 -p tcp -e 1040 -c 0 -i 37 -a 0 -x {1.0 4.0 2 ------- null}
- -t 0.56792 -s 0 -d 4 -p tcp -e 1040 -c 0 -i 37 -a 0 -x {1.0 4.0 2 ------- null}
h -t 0.56792 -s 0 -d 4 -p tcp -e 1040 -c 0 -i 37 -a 0 -x {1.0 4.0 -1 ------- null}
- -t 0.57424 -s 2 -d 3 -p tcp -e 1040 -c 1 -i 41 -a 1 -x {2.0 3.0 5 ------- null}
h -t 0.57424 -s 2 -d 3 -p tcp -e 1040 -c 1 -i 41 -a 1 -x {2.0 3.0 -1 ------- null}
r -t 0.57592 -s 2 -d 3 -p tcp -e 1040 -c 1 -i 39 -a 1 -x {2.0 3.0 3 ------- null}
r -t 0.57792 -s 0 -d 4 -p tcp -e 1040 -c 0 -i 36 -a 0 -x {1.0 4.0 1 ------- null}
r -t 0.58424 -s 2 -d 3 -p tcp -e 1040 -c 1 -i 40 -a 1 -x {2.0 3.0 4 ------- null}
+ -t 0.58424 -s 3 -d 2 -p ack -e 40 -c 1 -i 42 -a 1 -x {3.0 2.0 4 ------- null}
- -t 0.58424 -s 3 -d 2 -p ack -e 40 -c 1 -i 42 -a 1 -x {3.0 2.0 4 ------- null}
h -t 0.58424 -s 3 -d 2 -p ack -e 40 -c 1 -i 42 -a 1 -x {3.0 2.0 -1 ------- null}
r -t 0.58624 -s 0 -d 4 -p tcp -e 1040 -c 0 -i 37 -a 0 -x {1.0 4.0 2 ------- null}
+ -t 0.58624 -s 4 -d 0 -p ack -e 40 -c 0 -i 43 -a 0 -x {4.0 1.0 2 ------- null}
- -t 0.58624 -s 4 -d 0 -p ack -e 40 -c 0 -i 43 -a 0 -x {4.0 1.0 2 ------- null}
h -t 0.58624 -s 4 -d 0 -p ack -e 40 -c 0 -i 43 -a 0 -x {4.0 1.0 -1 ------- null}
r -t 0.59256 -s 2 -d 3 -p tcp -e 1040 -c 1 -i 41 -a 1 -x {2.0 3.0 5 ------- null}
r -t 0.59456 -s 3 -d 2 -p ack -e 40 -c 1 -i 42 -a 1 -x {3.0 2.0 4 ------- null}
+ -t 0.59456 -s 2 -d 3 -p tcp -e 1040 -c 1 -i 44 -a 1 -x {2.0 3.0 6 ------- null}
- -t 0.59456 -s 2 -d 3 -p tcp -e 1040 -c 1 -i 44 -a 1 -x {2.0 3.0 6 ------- null}
h -t 0.59456 -s 2 -d 3 -p tcp -e 1040 -c 1 -i 44 -a 1 -x {2.0 3.0 -1 ------- null}
+ -t 0.59456 -s 2 -d 3 -p tcp -e 1040 -c 1 -i 45 -a 1 -x {2.0 3.0 7 ------- null}
+ -t 0.59456 -s 2 -d 3 -p tcp -e 1040 -c 1 -i 46 -a 1 -x {2.0 3.0 8 ------- null}
r -t 0.59656 -s 4 -d 0 -p ack -e 40 -c 0 -i 43 -a 0 -x {4.0 1.0 2 ------- null}
+ -t 0.59656 -s 0 -d 1 -p ack -e 40 -c 0 -i 43 -a 0 -x {4.0 1.0 2 ------- null}
- -t 0.59656 -s 0 -d 1 -p ack -e 40 -c 0 -i 43 -a 0 -x {4.0 1.0 2 ------- null}
h -t 0.59656 -s 0 -d 1 -p ack -e 40 -c 0 -i 43 -a 0 -x {4.0 1.0 -1 ------- null}
- -t 0.60288 -s 2 -d 3 -p tcp -e 1040 -c 1 -i 45 -a 1 -x {2.0 3.0 7 ------- null}
h -t 0.60288 -s 2 -d 3 -p tcp -e 1040 -c 1 -i 45 -a 1 -x {2.0 3.0 -1 ------- null}
r -t 0.60688 -s 0 -d 1 -p ack -e 40 -c 0 -i 43 -a 0 -x {4.0 1.0 2 ------- null}
+ -t 0.60688 -s 1 -d 0 -p tcp -e 1040 -c 0 -i 47 -a 0 -x {1.0 4.0 3 ------- null}
- -t 0.60688 -s 1 -d 0 -p tcp -e 1040 -c 0 -i 47 -a 0 -x {1.0 4.0 3 ------- null}
h -t 0.60688 -s 1 -d 0 -p tcp -e 1040 -c 0 -i 47 -a 0 -x {1.0 4.0 -1 ------- null}
+ -t 0.60688 -s 1 -d 0 -p tcp -e 1040 -c 0 -i 48 -a 0 -x {1.0 4.0 4 ------- null}
+ -t 0.60688 -s 1 -d 0 -p tcp -e 1040 -c 0 -i 49 -a 0 -x {1.0 4.0 5 ------- null}
- -t 0.6112 -s 2 -d 3 -p tcp -e 1040 -c 1 -i 46 -a 1 -x {2.0 3.0 8 ------- null}
h -t 0.6112 -s 2 -d 3 -p tcp -e 1040 -c 1 -i 46 -a 1 -x {2.0 3.0 -1 ------- null}
r -t 0.61288 -s 2 -d 3 -p tcp -e 1040 -c 1 -i 44 -a 1 -x {2.0 3.0 6 ------- null}
+ -t 0.61288 -s 3 -d 2 -p ack -e 40 -c 1 -i 50 -a 1 -x {3.0 2.0 6 ------- null}
- -t 0.61288 -s 3 -d 2 -p ack -e 40 -c 1 -i 50 -a 1 -x {3.0 2.0 6 ------- null}
h -t 0.61288 -s 3 -d 2 -p ack -e 40 -c 1 -i 50 -a 1 -x {3.0 2.0 -1 ------- null}
- -t 0.6152 -s 1 -d 0 -p tcp -e 1040 -c 0 -i 48 -a 0 -x {1.0 4.0 4 ------- null}
h -t 0.6152 -s 1 -d 0 -p tcp -e 1040 -c 0 -i 48 -a 0 -x {1.0 4.0 -1 ------- null}
r -t 0.6212 -s 2 -d 3 -p tcp -e 1040 -c 1 -i 45 -a 1 -x {2.0 3.0 7 ------- null}
r -t 0.6232 -s 3 -d 2 -p ack -e 40 -c 1 -i 50 -a 1 -x {3.0 2.0 6 ------- null}
+ -t 0.6232 -s 2 -d 3 -p tcp -e 1040 -c 1 -i 51 -a 1 -x {2.0 3.0 9 ------- null}
- -t 0.6232 -s 2 -d 3 -p tcp -e 1040 -c 1 -i 51 -a 1 -x {2.0 3.0 9 ------- null}
h -t 0.6232 -s 2 -d 3 -p tcp -e 1040 -c 1 -i 51 -a 1 -x {2.0 3.0 -1 ------- null}
+ -t 0.6232 -s 2 -d 3 -p tcp -e 1040 -c 1 -i 52 -a 1 -x {2.0 3.0 10 ------- null}
+ -t 0.6232 -s 2 -d 3 -p tcp -e 1040 -c 1 -i 53 -a 1 -x {2.0 3.0 11 ------- null}
- -t 0.62352 -s 1 -d 0 -p tcp -e 1040 -c 0 -i 49 -a 0 -x {1.0 4.0 5 ------- null}
h -t 0.62352 -s 1 -d 0 -p tcp -e 1040 -c 0 -i 49 -a 0 -x {1.0 4.0 -1 ------- null}
r -t 0.6252 -s 1 -d 0 -p tcp -e 1040 -c 0 -i 47 -a 0 -x {1.0 4.0 3 ------- null}
+ -t 0.6252 -s 0 -d 4 -p tcp -e 1040 -c 0 -i 47 -a 0 -x {1.0 4.0 3 ------- null}
- -t 0.6252 -s 0 -d 4 -p tcp -e 1040 -c 0 -i 47 -a 0 -x {1.0 4.0 3 ------- null}
h -t 0.6252 -s 0 -d 4 -p tcp -e 1040 -c 0 -i 47 -a 0 -x {1.0 4.0 -1 ------- null}
r -t 0.62952 -s 2 -d 3 -p tcp -e 1040 -c 1 -i 46 -a 1 -x {2.0 3.0 8 ------- null}
+ -t 0.62952 -s 3 -d 2 -p ack -e 40 -c 1 -i 54 -a 1 -x {3.0 2.0 8 ------- null}
- -t 0.62952 -s 3 -d 2 -p ack -e 40 -c 1 -i 54 -a 1 -x {3.0 2.0 8 ------- null}
h -t 0.62952 -s 3 -d 2 -p ack -e 40 -c 1 -i 54 -a 1 -x {3.0 2.0 -1 ------- null}
- -t 0.63152 -s 2 -d 3 -p tcp -e 1040 -c 1 -i 52 -a 1 -x {2.0 3.0 10 ------- null}
h -t 0.63152 -s 2 -d 3 -p tcp -e 1040 -c 1 -i 52 -a 1 -x {2.0 3.0 -1 ------- null}
r -t 0.63352 -s 1 -d 0 -p tcp -e 1040 -c 0 -i 48 -a 0 -x {1.0 4.0 4 ------- null}
+ -t 0.63352 -s 0 -d 4 -p tcp -e 1040 -c 0 -i 48 -a 0 -x {1.0 4.0 4 ------- null}
- -t 0.63352 -s 0 -d 4 -p tcp -e 1040 -c 0 -i 48 -a 0 -x {1.0 4.0 4 ------- null}
h -t 0.63352 -s 0 -d 4 -p tcp -e 1040 -c 0 -i 48 -a 0 -x {1.0 4.0 -1 ------- null}
r -t 0.63984 -s 3 -d 2 -p ack -e 40 -c 1 -i 54 -a 1 -x {3.0 2.0 8 ------- null}
+ -t 0.63984 -s 2 -d 3 -p tcp -e 1040 -c 1 -i 55 -a 1 -x {2.0 3.0 12 ------- null}
+ -t 0.63984 -s 2 -d 3 -p tcp -e 1040 -c 1 -i 56 -a 1 -x {2.0 3.0 13 ------- null}
+ -t 0.63984 -s 2 -d 3 -p tcp -e 1040 -c 1 -i 57 -a 1 -x {2.0 3.0 14 ------- null}
- -t 0.63984 -s 2 -d 3 -p tcp -e 1040 -c 1 -i 53 -a 1 -x {2.0 3.0 11 ------- null}
h -t 0.63984 -s 2 -d 3 -p tcp -e 1040 -c 1 -i 53 -a 1 -x {2.0 3.0 -1 ------- null}
r -t 0.64152 -s 2 -d 3 -p tcp -e 1040 -c 1 -i 51 -a 1 -x {2.0 3.0 9 ------- null}
r -t 0.64184 -s 1 -d 0 -p tcp -e 1040 -c 0 -i 49 -a 0 -x {1.0 4.0 5 ------- null}
+ -t 0.64184 -s 0 -d 4 -p tcp -e 1040 -c 0 -i 49 -a 0 -x {1.0 4.0 5 ------- null}
- -t 0.64184 -s 0 -d 4 -p tcp -e 1040 -c 0 -i 49 -a 0 -x {1.0 4.0 5 ------- null}
h -t 0.64184 -s 0 -d 4 -p tcp -e 1040 -c 0 -i 49 -a 0 -x {1.0 4.0 -1 ------- null}
r -t 0.64352 -s 0 -d 4 -p tcp -e 1040 -c 0 -i 47 -a 0 -x {1.0 4.0 3 ------- null}
- -t 0.64816 -s 2 -d 3 -p tcp -e 1040 -c 1 -i 55 -a 1 -x {2.0 3.0 12 ------- null}
h -t 0.64816 -s 2 -d 3 -p tcp -e 1040 -c 1 -i 55 -a 1 -x {2.0 3.0 -1 ------- null}
r -t 0.64984 -s 2 -d 3 -p tcp -e 1040 -c 1 -i 52 -a 1 -x {2.0 3.0 10 ------- null}
+ -t 0.64984 -s 3 -d 2 -p ack -e 40 -c 1 -i 58 -a 1 -x {3.0 2.0 10 ------- null}
- -t 0.64984 -s 3 -d 2 -p ack -e 40 -c 1 -i 58 -a 1 -x {3.0 2.0 10 ------- null}
h -t 0.64984 -s 3 -d 2 -p ack -e 40 -c 1 -i 58 -a 1 -x {3.0 2.0 -1 ------- null}
r -t 0.65184 -s 0 -d 4 -p tcp -e 1040 -c 0 -i 48 -a 0 -x {1.0 4.0 4 ------- null}
+ -t 0.65184 -s 4 -d 0 -p ack -e 40 -c 0 -i 59 -a 0 -x {4.0 1.0 4 ------- null}
- -t 0.65184 -s 4 -d 0 -p ack -e 40 -c 0 -i 59 -a 0 -x {4.0 1.0 4 ------- null}
h -t 0.65184 -s 4 -d 0 -p ack -e 40 -c 0 -i 59 -a 0 -x {4.0 1.0 -1 ------- null}
- -t 0.65648 -s 2 -d 3 -p tcp -e 1040 -c 1 -i 56 -a 1 -x {2.0 3.0 13 ------- null}
h -t 0.65648 -s 2 -d 3 -p tcp -e 1040 -c 1 -i 56 -a 1 -x {2.0 3.0 -1 ------- null}
r -t 0.65816 -s 2 -d 3 -p tcp -e 1040 -c 1 -i 53 -a 1 -x {2.0 3.0 11 ------- null}
r -t 0.66016 -s 0 -d 4 -p tcp -e 1040 -c 0 -i 49 -a 0 -x {1.0 4.0 5 ------- null}
r -t 0.66016 -s 3 -d 2 -p ack -e 40 -c 1 -i 58 -a 1 -x {3.0 2.0 10 ------- null}
+ -t 0.66016 -s 2 -d 3 -p tcp -e 1040 -c 1 -i 60 -a 1 -x {2.0 3.0 15 ------- null}
+ -t 0.66016 -s 2 -d 3 -p tcp -e 1040 -c 1 -i 61 -a 1 -x {2.0 3.0 16 ------- null}
+ -t 0.66016 -s 2 -d 3 -p tcp -e 1040 -c 1 -i 62 -a 1 -x {2.0 3.0 17 ------- null}
r -t 0.66216 -s 4 -d 0 -p ack -e 40 -c 0 -i 59 -a 0 -x {4.0 1.0 4 ------- null}
+ -t 0.66216 -s 0 -d 1 -p ack -e 40 -c 0 -i 59 -a 0 -x {4.0 1.0 4 ------- null}
- -t 0.66216 -s 0 -d 1 -p ack -e 40 -c 0 -i 59 -a 0 -x {4.0 1.0 4 ------- null}
h -t 0.66216 -s 0 -d 1 -p ack -e 40 -c 0 -i 59 -a 0 -x {4.0 1.0 -1 ------- null}
- -t 0.6648 -s 2 -d 3 -p tcp -e 1040 -c 1 -i 57 -a 1 -x {2.0 3.0 14 ------- null}
h -t 0.6648 -s 2 -d 3 -p tcp -e 1040 -c 1 -i 57 -a 1 -x {2.0 3.0 -1 ------- null}
r -t 0.66648 -s 2 -d 3 -p tcp -e 1040 -c 1 -i 55 -a 1 -x {2.0 3.0 12 ------- null}
+ -t 0.66648 -s 3 -d 2 -p ack -e 40 -c 1 -i 63 -a 1 -x {3.0 2.0 12 ------- null}
- -t 0.66648 -s 3 -d 2 -p ack -e 40 -c 1 -i 63 -a 1 -x {3.0 2.0 12 ------- null}
h -t 0.66648 -s 3 -d 2 -p ack -e 40 -c 1 -i 63 -a 1 -x {3.0 2.0 -1 ------- null}
r -t 0.67248 -s 0 -d 1 -p ack -e 40 -c 0 -i 59 -a 0 -x {4.0 1.0 4 ------- null}
+ -t 0.67248 -s 1 -d 0 -p tcp -e 1040 -c 0 -i 64 -a 0 -x {1.0 4.0 6 ------- null}
- -t 0.67248 -s 1 -d 0 -p tcp -e 1040 -c 0 -i 64 -a 0 -x {1.0 4.0 6 ------- null}
h -t 0.67248 -s 1 -d 0 -p tcp -e 1040 -c 0 -i 64 -a 0 -x {1.0 4.0 -1 ------- null}
+ -t 0.67248 -s 1 -d 0 -p tcp -e 1040 -c 0 -i 65 -a 0 -x {1.0 4.0 7 ------- null}
+ -t 0.67248 -s 1 -d 0 -p tcp -e 1040 -c 0 -i 66 -a 0 -x {1.0 4.0 8 ------- null}
- -t 0.67312 -s 2 -d 3 -p tcp -e 1040 -c 1 -i 60 -a 1 -x {2.0 3.0 15 ------- null}
h -t 0.67312 -s 2 -d 3 -p tcp -e 1040 -c 1 -i 60 -a 1 -x {2.0 3.0 -1 ------- null}
r -t 0.6748 -s 2 -d 3 -p tcp -e 1040 -c 1 -i 56 -a 1 -x {2.0 3.0 13 ------- null}
r -t 0.6768 -s 3 -d 2 -p ack -e 40 -c 1 -i 63 -a 1 -x {3.0 2.0 12 ------- null}
+ -t 0.6768 -s 2 -d 3 -p tcp -e 1040 -c 1 -i 67 -a 1 -x {2.0 3.0 18 ------- null}
+ -t 0.6768 -s 2 -d 3 -p tcp -e 1040 -c 1 -i 68 -a 1 -x {2.0 3.0 19 ------- null}
+ -t 0.6768 -s 2 -d 3 -p tcp -e 1040 -c 1 -i 69 -a 1 -x {2.0 3.0 20 ------- null}
- -t 0.6808 -s 1 -d 0 -p tcp -e 1040 -c 0 -i 65 -a 0 -x {1.0 4.0 7 ------- null}
h -t 0.6808 -s 1 -d 0 -p tcp -e 1040 -c 0 -i 65 -a 0 -x {1.0 4.0 -1 ------- null}
- -t 0.68144 -s 2 -d 3 -p tcp -e 1040 -c 1 -i 61 -a 1 -x {2.0 3.0 16 ------- null}
h -t 0.68144 -s 2 -d 3 -p tcp -e 1040 -c 1 -i 61 -a 1 -x {2.0 3.0 -1 ------- null}
r -t 0.68312 -s 2 -d 3 -p tcp -e 1040 -c 1 -i 57 -a 1 -x {2.0 3.0 14 ------- null}
+ -t 0.68312 -s 3 -d 2 -p ack -e 40 -c 1 -i 70 -a 1 -x {3.0 2.0 14 ------- null}
- -t 0.68312 -s 3 -d 2 -p ack -e 40 -c 1 -i 70 -a 1 -x {3.0 2.0 14 ------- null}
h -t 0.68312 -s 3 -d 2 -p ack -e 40 -c 1 -i 70 -a 1 -x {3.0 2.0 -1 ------- null}
- -t 0.68912 -s 1 -d 0 -p tcp -e 1040 -c 0 -i 66 -a 0 -x {1.0 4.0 8 ------- null}
h -t 0.68912 -s 1 -d 0 -p tcp -e 1040 -c 0 -i 66 -a 0 -x {1.0 4.0 -1 ------- null}
- -t 0.68976 -s 2 -d 3 -p tcp -e 1040 -c 1 -i 62 -a 1 -x {2.0 3.0 17 ------- null}
h -t 0.68976 -s 2 -d 3 -p tcp -e 1040 -c 1 -i 62 -a 1 -x {2.0 3.0 -1 ------- null}
r -t 0.6908 -s 1 -d 0 -p tcp -e 1040 -c 0 -i 64 -a 0 -x {1.0 4.0 6 ------- null}
+ -t 0.6908 -s 0 -d 4 -p tcp -e 1040 -c 0 -i 64 -a 0 -x {1.0 4.0 6 ------- null}
- -t 0.6908 -s 0 -d 4 -p tcp -e 1040 -c 0 -i 64 -a 0 -x {1.0 4.0 6 ------- null}
h -t 0.6908 -s 0 -d 4 -p tcp -e 1040 -c 0 -i 64 -a 0 -x {1.0 4.0 -1 ------- null}
r -t 0.69144 -s 2 -d 3 -p tcp -e 1040 -c 1 -i 60 -a 1 -x {2.0 3.0 15 ------- null}
r -t 0.69344 -s 3 -d 2 -p ack -e 40 -c 1 -i 70 -a 1 -x {3.0 2.0 14 ------- null}
+ -t 0.69344 -s 2 -d 3 -p tcp -e 1040 -c 1 -i 71 -a 1 -x {2.0 3.0 21 ------- null}
+ -t 0.69344 -s 2 -d 3 -p tcp -e 1040 -c 1 -i 72 -a 1 -x {2.0 3.0 22 ------- null}
+ -t 0.69344 -s 2 -d 3 -p tcp -e 1040 -c 1 -i 73 -a 1 -x {2.0 3.0 23 ------- null}
- -t 0.69808 -s 2 -d 3 -p tcp -e 1040 -c 1 -i 67 -a 1 -x {2.0 3.0 18 ------- null}
h -t 0.69808 -s 2 -d 3 -p tcp -e 1040 -c 1 -i 67 -a 1 -x {2.0 3.0 -1 ------- null}
r -t 0.69912 -s 1 -d 0 -p tcp -e 1040 -c 0 -i 65 -a 0 -x {1.0 4.0 7 ------- null}
+ -t 0.69912 -s 0 -d 4 -p tcp -e 1040 -c 0 -i 65 -a 0 -x {1.0 4.0 7 ------- null}
- -t 0.69912 -s 0 -d 4 -p tcp -e 1040 -c 0 -i 65 -a 0 -x {1.0 4.0 7 ------- null}
h -t 0.69912 -s 0 -d 4 -p tcp -e 1040 -c 0 -i 65 -a 0 -x {1.0 4.0 -1 ------- null}
r -t 0.69976 -s 2 -d 3 -p tcp -e 1040 -c 1 -i 61 -a 1 -x {2.0 3.0 16 ------- null}
+ -t 0.69976 -s 3 -d 2 -p ack -e 40 -c 1 -i 74 -a 1 -x {3.0 2.0 16 ------- null}
- -t 0.69976 -s 3 -d 2 -p ack -e 40 -c 1 -i 74 -a 1 -x {3.0 2.0 16 ------- null}
h -t 0.69976 -s 3 -d 2 -p ack -e 40 -c 1 -i 74 -a 1 -x {3.0 2.0 -1 ------- null}
- -t 0.7064 -s 2 -d 3 -p tcp -e 1040 -c 1 -i 68 -a 1 -x {2.0 3.0 19 ------- null}
h -t 0.7064 -s 2 -d 3 -p tcp -e 1040 -c 1 -i 68 -a 1 -x {2.0 3.0 -1 ------- null}
r -t 0.70744 -s 1 -d 0 -p tcp -e 1040 -c 0 -i 66 -a 0 -x {1.0 4.0 8 ------- null}
+ -t 0.70744 -s 0 -d 4 -p tcp -e 1040 -c 0 -i 66 -a 0 -x {1.0 4.0 8 ------- null}
- -t 0.70744 -s 0 -d 4 -p tcp -e 1040 -c 0 -i 66 -a 0 -x {1.0 4.0 8 ------- null}
h -t 0.70744 -s 0 -d 4 -p tcp -e 1040 -c 0 -i 66 -a 0 -x {1.0 4.0 -1 ------- null}
r -t 0.70808 -s 2 -d 3 -p tcp -e 1040 -c 1 -i 62 -a 1 -x {2.0 3.0 17 ------- null}
r -t 0.70912 -s 0 -d 4 -p tcp -e 1040 -c 0 -i 64 -a 0 -x {1.0 4.0 6 ------- null}
+ -t 0.70912 -s 4 -d 0 -p ack -e 40 -c 0 -i 75 -a 0 -x {4.0 1.0 6 ------- null}
- -t 0.70912 -s 4 -d 0 -p ack -e 40 -c 0 -i 75 -a 0 -x {4.0 1.0 6 ------- null}
h -t 0.70912 -s 4 -d 0 -p ack -e 40 -c 0 -i 75 -a 0 -x {4.0 1.0 -1 ------- null}
r -t 0.71008 -s 3 -d 2 -p ack -e 40 -c 1 -i 74 -a 1 -x {3.0 2.0 16 ------- null}
+ -t 0.71008 -s 2 -d 3 -p tcp -e 1040 -c 1 -i 76 -a 1 -x {2.0 3.0 24 ------- null}
+ -t 0.71008 -s 2 -d 3 -p tcp -e 1040 -c 1 -i 77 -a 1 -x {2.0 3.0 25 ------- null}