V -t * -v 1.0a5 -a 0
A -t * -n 1 -p 0 -o 0x7fffffff -c 30 -a 1
A -t * -h 1 -m 1073741823 -s 0
c -t * -i 4 -n yellow
c -t * -i 0 -n blue
c -t * -i 5 -n violet
c -t * -i 1 -n red
c -t * -i 2 -n cyan
c -t * -i 3 -n green
n -t * -a 4 -s 4 -S UP -v circle -c red -i red
n -t * -a 0 -s 0 -S UP -v box -c green -i green
n -t * -a 1 -s 1 -S UP -v circle -c red -i red
n -t * -a 2 -s 2 -S UP -v circle -c red -i red
n -t * -a 3 -s 3 -S UP -v circle -c red -i red
l -t * -s 0 -d 1 -S UP -r 1000000 -D 0.01 -c black
l -t * -s 0 -d 2 -S UP -r 1000000 -D 0.01 -c black
l -t * -s 0 -d 3 -S UP -r 1000000 -D 0.01 -c black
l -t * -s 0 -d 4 -S UP -r 1000000 -D 0.01 -c black
+ -t 0.5 -s 1 -d 0 -p tcp -e 40 -c 0 -i 0 -a 0 -x {1.0 4.0 0 ------- null}
- -t 0.5 -s 1 -d 0 -p tcp -e 40 -c 0 -i 0 -a 0 -x {1.0 4.0 0 ------- null}
h -t 0.5 -s 1 -d 0 -p tcp -e 40 -c 0 -i 0 -a 0 -x {1.0 4.0 -1 ------- null}
+ -t 0.5 -s 2 -d 0 -p tcp -e 40 -c 1 -i 1 -a 1 -x {2.0 3.0 0 ------- null}
- -t 0.5 -s 2 -d 0 -p tcp -e 40 -c 1 -i 1 -a 1 -x {2.0 3.0 0 ------- null}
h -t 0.5 -s 2 -d 0 -p tcp -e 40 -c 1 -i 1 -a 1 -x {2.0 3.0 -1 ------- null}
r -t 0.51032 -s 1 -d 0 -p tcp -e 40 -c 0 -i 0 -a 0 -x {1.0 4.0 0 ------- null}
+ -t 0.51032 -s 0 -d 4 -p tcp -e 40 -c 0 -i 0 -a 0 -x {1.0 4.0 0 ------- null}
- -t 0.51032 -s 0 -d 4 -p tcp -e 40 -c 0 -i 0 -a 0 -x {1.0 4.0 0 ------- null}
h -t 0.51032 -s 0 -d 4 -p tcp -e 40 -c 0 -i 0 -a 0 -x {1.0 4.0 -1 ------- null}
r -t 0.51032 -s 2 -d 0 -p tcp -e 40 -c 1 -i 1 -a 1 -x {2.0 3.0 0 ------- null}
+ -t 0.51032 -s 0 -d 3 -p tcp -e 40 -c 1 -i 1 -a 1 -x {2.0 3.0 0 ------- null}
- -t 0.51032 -s 0 -d 3 -p tcp -e 40 -c 1 -i 1 -a 1 -x {2.0 3.0 0 ------- null}
h -t 0.51032 -s 0 -d 3 -p tcp -e 40 -c 1 -i 1 -a 1 -x {2.0 3.0 -1 ------- null}
r -t 0.52064 -s 0 -d 4 -p tcp -e 40 -c 0 -i 0 -a 0 -x {1.0 4.0 0 ------- null}
+ -t 0.52064 -s 4 -d 0 -p ack -e 40 -c 0 -i 2 -a 0 -x {4.0 1.0 0 ------- null}
- -t 0.52064 -s 4 -d 0 -p ack -e 40 -c 0 -i 2 -a 0 -x {4.0 1.0 0 ------- null}
h -t 0.52064 -s 4 -d 0 -p ack -e 40 -c 0 -i 2 -a 0 -x {4.0 1.0 -1 ------- null}
r -t 0.52064 -s 0 -d 3 -p tcp -e 40 -c 1 -i 1 -a 1 -x {2.0 3.0 0 ------- null}
+ -t 0.52064 -s 3 -d 0 -p ack -e 40 -c 1 -i 3 -a 1 -x {3.0 2.0 0 ------- null}
- -t 0.52064 -s 3 -d 0 -p ack -e 40 -c 1 -i 3 -a 1 -x {3.0 2.0 0 ------- null}
h -t 0.52064 -s 3 -d 0 -p ack -e 40 -c 1 -i 3 -a 1 -x {3.0 2.0 -1 ------- null}
r -t 0.53096 -s 4 -d 0 -p ack -e 40 -c 0 -i 2 -a 0 -x {4.0 1.0 0 ------- null}
+ -t 0.53096 -s 0 -d 1 -p ack -e 40 -c 0 -i 2 -a 0 -x {4.0 1.0 0 ------- null}
- -t 0.53096 -s 0 -d 1 -p ack -e 40 -c 0 -i 2 -a 0 -x {4.0 1.0 0 ------- null}
h -t 0.53096 -s 0 -d 1 -p ack -e 40 -c 0 -i 2 -a 0 -x {4.0 1.0 -1 ------- null}
r -t 0.53096 -s 3 -d 0 -p ack -e 40 -c 1 -i 3 -a 1 -x {3.0 2.0 0 ------- null}
+ -t 0.53096 -s 0 -d 2 -p ack -e 40 -c 1 -i 3 -a 1 -x {3.0 2.0 0 ------- null}
- -t 0.53096 -s 0 -d 2 -p ack -e 40 -c 1 -i 3 -a 1 -x {3.0 2.0 0 ------- null}
h -t 0.53096 -s 0 -d 2 -p ack -e 40 -c 1 -i 3 -a 1 -x {3.0 2.0 -1 ------- null}
r -t 0.54128 -s 0 -d 1 -p ack -e 40 -c 0 -i 2 -a 0 -x {4.0 1.0 0 ------- null}
+ -t 0.54128 -s 1 -d 0 -p tcp -e 1040 -c 0 -i 4 -a 0 -x {1.0 4.0 1 ------- null}
- -t 0.54128 -s 1 -d 0 -p tcp -e 1040 -c 0 -i 4 -a 0 -x {1.0 4.0 1 ------- null}
h -t 0.54128 -s 1 -d 0 -p tcp -e 1040 -c 0 -i 4 -a 0 -x {1.0 4.0 -1 ------- null}
+ -t 0.54128 -s 1 -d 0 -p tcp -e 1040 -c 0 -i 5 -a 0 -x {1.0 4.0 2 ------- null}
r -t 0.54128 -s 0 -d 2 -p ack -e 40 -c 1 -i 3 -a 1 -x {3.0 2.0 0 ------- null}
+ -t 0.54128 -s 2 -d 0 -p tcp -e 1040 -c 1 -i 6 -a 1 -x {2.0 3.0 1 ------- null}
- -t 0.54128 -s 2 -d 0 -p tcp -e 1040 -c 1 -i 6 -a 1 -x {2.0 3.0 1 ------- null}
h -t 0.54128 -s 2 -d 0 -p tcp -e 1040 -c 1 -i 6 -a 1 -x {2.0 3.0 -1 ------- null}
+ -t 0.54128 -s 2 -d 0 -p tcp -e 1040 -c 1 -i 7 -a 1 -x {2.0 3.0 2 ------- null}
- -t 0.5496 -s 1 -d 0 -p tcp -e 1040 -c 0 -i 5 -a 0 -x {1.0 4.0 2 ------- null}
h -t 0.5496 -s 1 -d 0 -p tcp -e 1040 -c 0 -i 5 -a 0 -x {1.0 4.0 -1 ------- null}
- -t 0.5496 -s 2 -d 0 -p tcp -e 1040 -c 1 -i 7 -a 1 -x {2.0 3.0 2 ------- null}
h -t 0.5496 -s 2 -d 0 -p tcp -e 1040 -c 1 -i 7 -a 1 -x {2.0 3.0 -1 ------- null}
r -t 0.5596 -s 1 -d 0 -p tcp -e 1040 -c 0 -i 4 -a 0 -x {1.0 4.0 1 ------- null}
+ -t 0.5596 -s 0 -d 4 -p tcp -e 1040 -c 0 -i 4 -a 0 -x {1.0 4.0 1 ------- null}
- -t 0.5596 -s 0 -d 4 -p tcp -e 1040 -c 0 -i 4 -a 0 -x {1.0 4.0 1 ------- null}
h -t 0.5596 -s 0 -d 4 -p tcp -e 1040 -c 0 -i 4 -a 0 -x {1.0 4.0 -1 ------- null}
r -t 0.5596 -s 2 -d 0 -p tcp -e 1040 -c 1 -i 6 -a 1 -x {2.0 3.0 1 ------- null}
+ -t 0.5596 -s 0 -d 3 -p tcp -e 1040 -c 1 -i 6 -a 1 -x {2.0 3.0 1 ------- null}
- -t 0.5596 -s 0 -d 3 -p tcp -e 1040 -c 1 -i 6 -a 1 -x {2.0 3.0 1 ------- null}
h -t 0.5596 -s 0 -d 3 -p tcp -e 1040 -c 1 -i 6 -a 1 -x {2.0 3.0 -1 ------- null}
r -t 0.56792 -s 1 -d 0 -p tcp -e 1040 -c 0 -i 5 -a 0 -x {1.0 4.0 2 ------- null}
+ -t 0.56792 -s 0 -d 4 -p tcp -e 1040 -c 0 -i 5 -a 0 -x {1.0 4.0 2 ------- null}
r -t 0.56792 -s 2 -d 0 -p tcp -e 1040 -c 1 -i 7 -a 1 -x {2.0 3.0 2 ------- null}
+ -t 0.56792 -s 0 -d 3 -p tcp -e 1040 -c 1 -i 7 -a 1 -x {2.0 3.0 2 ------- null}
- -t 0.56792 -s 0 -d 4 -p tcp -e 1040 -c 0 -i 5 -a 0 -x {1.0 4.0 2 ------- null}
h -t 0.56792 -s 0 -d 4 -p tcp -e 1040 -c 0 -i 5 -a 0 -x {1.0 4.0 -1 ------- null}
- -t 0.56792 -s 0 -d 3 -p tcp -e 1040 -c 1 -i 7 -a 1 -x {2.0 3.0 2 ------- null}
h -t 0.56792 -s 0 -d 3 -p tcp -e 1040 -c 1 -i 7 -a 1 -x {2.0 3.0 -1 ------- null}
r -t 0.57792 -s 0 -d 4 -p tcp -e 1040 -c 0 -i 4 -a 0 -x {1.0 4.0 1 ------- null}
r -t 0.57792 -s 0 -d 3 -p tcp -e 1040 -c 1 -i 6 -a 1 -x {2.0 3.0 1 ------- null}
r -t 0.58624 -s 0 -d 4 -p tcp -e 1040 -c 0 -i 5 -a 0 -x {1.0 4.0 2 ------- null}
+ -t 0.58624 -s 4 -d 0 -p ack -e 40 -c 0 -i 8 -a 0 -x {4.0 1.0 2 ------- null}
- -t 0.58624 -s 4 -d 0 -p ack -e 40 -c 0 -i 8 -a 0 -x {4.0 1.0 2 ------- null}
h -t 0.58624 -s 4 -d 0 -p ack -e 40 -c 0 -i 8 -a 0 -x {4.0 1.0 -1 ------- null}
r -t 0.58624 -s 0 -d 3 -p tcp -e 1040 -c 1 -i 7 -a 1 -x {2.0 3.0 2 ------- null}
+ -t 0.58624 -s 3 -d 0 -p ack -e 40 -c 1 -i 9 -a 1 -x {3.0 2.0 2 ------- null}
- -t 0.58624 -s 3 -d 0 -p ack -e 40 -c 1 -i 9 -a 1 -x {3.0 2.0 2 ------- null}
h -t 0.58624 -s 3 -d 0 -p ack -e 40 -c 1 -i 9 -a 1 -x {3.0 2.0 -1 ------- null}
r -t 0.59656 -s 4 -d 0 -p ack -e 40 -c 0 -i 8 -a 0 -x {4.0 1.0 2 ------- null}
+ -t 0.59656 -s 0 -d 1 -p ack -e 40 -c 0 -i 8 -a 0 -x {4.0 1.0 2 ------- null}
- -t 0.59656 -s 0 -d 1 -p ack -e 40 -c 0 -i 8 -a 0 -x {4.0 1.0 2 ------- null}
h -t 0.59656 -s 0 -d 1 -p ack -e 40 -c 0 -i 8 -a 0 -x {4.0 1.0 -1 ------- null}
r -t 0.59656 -s 3 -d 0 -p ack -e 40 -c 1 -i 9 -a 1 -x {3.0 2.0 2 ------- null}
+ -t 0.59656 -s 0 -d 2 -p ack -e 40 -c 1 -i 9 -a 1 -x {3.0 2.0 2 ------- null}
- -t 0.59656 -s 0 -d 2 -p ack -e 40 -c 1 -i 9 -a 1 -x {3.0 2.0 2 ------- null}
h -t 0.59656 -s 0 -d 2 -p ack -e 40 -c 1 -i 9 -a 1 -x {3.0 2.0 -1 ------- null}
r -t 0.60688 -s 0 -d 1 -p ack -e 40 -c 0 -i 8 -a 0 -x {4.0 1.0 2 ------- null}
+ -t 0.60688 -s 1 -d 0 -p tcp -e 1040 -c 0 -i 10 -a 0 -x {1.0 4.0 3 ------- null}
- -t 0.60688 -s 1 -d 0 -p tcp -e 1040 -c 0 -i 10 -a 0 -x {1.0 4.0 3 ------- null}
h -t 0.60688 -s 1 -d 0 -p tcp -e 1040 -c 0 -i 10 -a 0 -x {1.0 4.0 -1 ------- null}
+ -t 0.60688 -s 1 -d 0 -p tcp -e 1040 -c 0 -i 11 -a 0 -x {1.0 4.0 4 ------- null}
+ -t 0.60688 -s 1 -d 0 -p tcp -e 1040 -c 0 -i 12 -a 0 -x {1.0 4.0 5 ------- null}
r -t 0.60688 -s 0 -d 2 -p ack -e 40 -c 1 -i 9 -a 1 -x {3.0 2.0 2 ------- null}
+ -t 0.60688 -s 2 -d 0 -p tcp -e 1040 -c 1 -i 13 -a 1 -x {2.0 3.0 3 ------- null}
- -t 0.60688 -s 2 -d 0 -p tcp -e 1040 -c 1 -i 13 -a 1 -x {2.0 3.0 3 ------- null}
h -t 0.60688 -s 2 -d 0 -p tcp -e 1040 -c 1 -i 13 -a 1 -x {2.0 3.0 -1 ------- null}
+ -t 0.60688 -s 2 -d 0 -p tcp -e 1040 -c 1 -i 14 -a 1 -x {2.0 3.0 4 ------- null}
+ -t 0.60688 -s 2 -d 0 -p tcp -e 1040 -c 1 -i 15 -a 1 -x {2.0 3.0 5 ------- null}
- -t 0.6152 -s 1 -d 0 -p tcp -e 1040 -c 0 -i 11 -a 0 -x {1.0 4.0 4 ------- null}
h -t 0.6152 -s 1 -d 0 -p tcp -e 1040 -c 0 -i 11 -a 0 -x {1.0 4.0 -1 ------- null}
- -t 0.6152 -s 2 -d 0 -p tcp -e 1040 -c 1 -i 14 -a 1 -x {2.0 3.0 4 ------- null}
h -t 0.6152 -s 2 -d 0 -p tcp -e 1040 -c 1 -i 14 -a 1 -x {2.0 3.0 -1 ------- null}
- -t 0.62352 -s 1 -d 0 -p tcp -e 1040 -c 0 -i 12 -a 0 -x {1.0 4.0 5 ------- null}
h -t 0.62352 -s 1 -d 0 -p tcp -e 1040 -c 0 -i 12 -a 0 -x {1.0 4.0 -1 ------- null}
- -t 0.62352 -s 2 -d 0 -p tcp -e 1040 -c 1 -i 15 -a 1 -x {2.0 3.0 5 ------- null}
h -t 0.62352 -s 2 -d 0 -p tcp -e 1040 -c 1 -i 15 -a 1 -x {2.0 3.0 -1 ------- null}
r -t 0.6252 -s 1 -d 0 -p tcp -e 1040 -c 0 -i 10 -a 0 -x {1.0 4.0 3 ------- null}
+ -t 0.6252 -s 0 -d 4 -p tcp -e 1040 -c 0 -i 10 -a 0 -x {1.0 4.0 3 ------- null}
- -t 0.6252 -s 0 -d 4 -p tcp -e 1040 -c 0 -i 10 -a 0 -x {1.0 4.0 3 ------- null}
h -t 0.6252 -s 0 -d 4 -p tcp -e 1040 -c 0 -i 10 -a 0 -x {1.0 4.0 -1 ------- null}
r -t 0.6252 -s 2 -d 0 -p tcp -e 1040 -c 1 -i 13 -a 1 -x {2.0 3.0 3 ------- null}
+ -t 0.6252 -s 0 -d 3 -p tcp -e 1040 -c 1 -i 13 -a 1 -x {2.0 3.0 3 ------- null}
- -t 0.6252 -s 0 -d 3 -p tcp -e 1040 -c 1 -i 13 -a 1 -x {2.0 3.0 3 ------- null}
h -t 0.6252 -s 0 -d 3 -p tcp -e 1040 -c 1 -i 13 -a 1 -x {2.0 3.0 -1 ------- null}
r -t 0.63352 -s 1 -d 0 -p tcp -e 1040 -c 0 -i 11 -a 0 -x {1.0 4.0 4 ------- null}
+ -t 0.63352 -s 0 -d 4 -p tcp -e 1040 -c 0 -i 11 -a 0 -x {1.0 4.0 4 ------- null}
r -t 0.63352 -s 2 -d 0 -p tcp -e 1040 -c 1 -i 14 -a 1 -x {2.0 3.0 4 ------- null}
+ -t 0.63352 -s 0 -d 3 -p tcp -e 1040 -c 1 -i 14 -a 1 -x {2.0 3.0 4 ------- null}
- -t 0.63352 -s 0 -d 4 -p tcp -e 1040 -c 0 -i 11 -a 0 -x {1.0 4.0 4 ------- null}
h -t 0.63352 -s 0 -d 4 -p tcp -e 1040 -c 0 -i 11 -a 0 -x {1.0 4.0 -1 ------- null}
- -t 0.63352 -s 0 -d 3 -p tcp -e 1040 -c 1 -i 14 -a 1 -x {2.0 3.0 4 ------- null}
h -t 0.63352 -s 0 -d 3 -p tcp -e 1040 -c 1 -i 14 -a 1 -x {2.0 3.0 -1 ------- null}
r -t 0.64184 -s 1 -d 0 -p tcp -e 1040 -c 0 -i 12 -a 0 -x {1.0 4.0 5 ------- null}
+ -t 0.64184 -s 0 -d 4 -p tcp -e 1040 -c 0 -i 12 -a 0 -x {1.0 4.0 5 ------- null}
r -t 0.64184 -s 2 -d 0 -p tcp -e 1040 -c 1 -i 15 -a 1 -x {2.0 3.0 5 ------- null}
+ -t 0.64184 -s 0 -d 3 -p tcp -e 1040 -c 1 -i 15 -a 1 -x {2.0 3.0 5 ------- null}
- -t 0.64184 -s 0 -d 4 -p tcp -e 1040 -c 0 -i 12 -a 0 -x {1.0 4.0 5 ------- null}
h -t 0.64184 -s 0 -d 4 -p tcp -e 1040 -c 0 -i 12 -a 0 -x {1.0 4.0 -1 ------- null}
- -t 0.64184 -s 0 -d 3 -p tcp -e 1040 -c 1 -i 15 -a 1 -x {2.0 3.0 5 ------- null}
h -t 0.64184 -s 0 -d 3 -p tcp -e 1040 -c 1 -i 15 -a 1 -x {2.0 3.0 -1 ------- null}
r -t 0.64352 -s 0 -d 4 -p tcp -e 1040 -c 0 -i 10 -a 0 -x {1.0 4.0 3 ------- null}
r -t 0.64352 -s 0 -d 3 -p tcp -e 1040 -c 1 -i 13 -a 1 -x {2.0 3.0 3 ------- null}
r -t 0.65184 -s 0 -d 4 -p tcp -e 1040 -c 0 -i 11 -a 0 -x {1.0 4.0 4 ------- null}
+ -t 0.65184 -s 4 -d 0 -p ack -e 40 -c 0 -i 16 -a 0 -x {4.0 1.0 4 ------- null}
- -t 0.65184 -s 4 -d 0 -p ack -e 40 -c 0 -i 16 -a 0 -x {4.0 1.0 4 ------- null}
h -t 0.65184 -s 4 -d 0 -p ack -e 40 -c 0 -i 16 -a 0 -x {4.0 1.0 -1 ------- null}
r -t 0.65184 -s 0 -d 3 -p tcp -e 1040 -c 1 -i 14 -a 1 -x {2.0 3.0 4 ------- null}
+ -t 0.65184 -s 3 -d 0 -p ack -e 40 -c 1 -i 17 -a 1 -x {3.0 2.0 4 ------- null}
- -t 0.65184 -s 3 -d 0 -p ack -e 40 -c 1 -i 17 -a 1 -x {3.0 2.0 4 ------- null}
h -t 0.65184 -s 3 -d 0 -p ack -e 40 -c 1 -i 17 -a 1 -x {3.0 2.0 -1 ------- null}
r -t 0.66016 -s 0 -d 4 -p tcp -e 1040 -c 0 -i 12 -a 0 -x {1.0 4.0 5 ------- null}
r -t 0.66016 -s 0 -d 3 -p tcp -e 1040 -c 1 -i 15 -a 1 -x {2.0 3.0 5 ------- null}
r -t 0.66216 -s 4 -d 0 -p ack -e 40 -c 0 -i 16 -a 0 -x {4.0 1.0 4 ------- null}
+ -t 0.66216 -s 0 -d 1 -p ack -e 40 -c 0 -i 16 -a 0 -x {4.0 1.0 4 ------- null}
- -t 0.66216 -s 0 -d 1 -p ack -e 40 -c 0 -i 16 -a 0 -x {4.0 1.0 4 ------- null}
h -t 0.66216 -s 0 -d 1 -p ack -e 40 -c 0 -i 16 -a 0 -x {4.0 1.0 -1 ------- null}
r -t 0.66216 -s 3 -d 0 -p ack -e 40 -c 1 -i 17 -a 1 -x {3.0 2.0 4 ------- null}
+ -t 0.66216 -s 0 -d 2 -p ack -e 40 -c 1 -i 17 -a 1 -x {3.0 2.0 4 ------- null}
- -t 0.66216 -s 0 -d 2 -p ack -e 40 -c 1 -i 17 -a 1 -x {3.0 2.0 4 ------- null}
h -t 0.66216 -s 0 -d 2 -p ack -e 40 -c 1 -i 17 -a 1 -x {3.0 2.0 -1 ------- null}
r -t 0.67248 -s 0 -d 1 -p ack -e 40 -c 0 -i 16 -a 0 -x {4.0 1.0 4 ------- null}
+ -t 0.67248 -s 1 -d 0 -p tcp -e 1040 -c 0 -i 18 -a 0 -x {1.0 4.0 6 ------- null}
- -t 0.67248 -s 1 -d 0 -p tcp -e 1040 -c 0 -i 18 -a 0 -x {1.0 4.0 6 ------- null}
h -t 0.67248 -s 1 -d 0 -p tcp -e 1040 -c 0 -i 18 -a 0 -x {1.0 4.0 -1 ------- null}
+ -t 0.67248 -s 1 -d 0 -p tcp -e 1040 -c 0 -i 19 -a 0 -x {1.0 4.0 7 ------- null}
+ -t 0.67248 -s 1 -d 0 -p tcp -e 1040 -c 0 -i 20 -a 0 -x {1.0 4.0 8 ------- null}
r -t 0.67248 -s 0 -d 2 -p ack -e 40 -c 1 -i 17 -a 1 -x {3.0 2.0 4 ------- null}
+ -t 0.67248 -s 2 -d 0 -p tcp -e 1040 -c 1 -i 21 -a 1 -x {2.0 3.0 6 ------- null}
- -t 0.67248 -s 2 -d 0 -p tcp -e 1040 -c 1 -i 21 -a 1 -x {2.0 3.0 6 ------- null}
h -t 0.67248 -s 2 -d 0 -p tcp -e 1040 -c 1 -i 21 -a 1 -x {2.0 3.0 -1 ------- null}
+ -t 0.67248 -s 2 -d 0 -p tcp -e 1040 -c 1 -i 22 -a 1 -x {2.0 3.0 7 ------- null}
+ -t 0.67248 -s 2 -d 0 -p tcp -e 1040 -c 1 -i 23 -a 1 -x {2.0 3.0 8 ------- null}
- -t 0.6808 -s 1 -d 0 -p tcp -e 1040 -c 0 -i 19 -a 0 -x {1.0 4.0 7 ------- null}
h -t 0.6808 -s 1 -d 0 -p tcp -e 1040 -c 0 -i 19 -a 0 -x {1.0 4.0 -1 ------- null}
- -t 0.6808 -s 2 -d 0 -p tcp -e 1040 -c 1 -i 22 -a 1 -x {2.0 3.0 7 ------- null}
h -t 0.6808 -s 2 -d 0 -p tcp -e 1040 -c 1 -i 22 -a 1 -x {2.0 3.0 -1 ------- null}
- -t 0.68912 -s 1 -d 0 -p tcp -e 1040 -c 0 -i 20 -a 0 -x {1.0 4.0 8 ------- null}
h -t 0.68912 -s 1 -d 0 -p tcp -e 1040 -c 0 -i 20 -a 0 -x {1.0 4.0 -1 ------- null}
- -t 0.68912 -s 2 -d 0 -p tcp -e 1040 -c 1 -i 23 -a 1 -x {2.0 3.0 8 ------- null}
h -t 0.68912 -s 2 -d 0 -p tcp -e 1040 -c 1 -i 23 -a 1 -x {2.0 3.0 -1 ------- null}
r -t 0.6908 -s 1 -d 0 -p tcp -e 1040 -c 0 -i 18 -a 0 -x {1.0 4.0 6 ------- null}
+ -t 0.6908 -s 0 -d 4 -p tcp -e 1040 -c 0 -i 18 -a 0 -x {1.0 4.0 6 ------- null}
- -t 0.6908 -s 0 -d 4 -p tcp -e 1040 -c 0 -i 18 -a 0 -x {1.0 4.0 6 ------- null}
h -t 0.6908 -s 0 -d 4 -p tcp -e 1040 -c 0 -i 18 -a 0 -x {1.0 4.0 -1 ------- null}
r -t 0.6908 -s 2 -d 0 -p tcp -e 1040 -c 1 -i 21 -a 1 -x {2.0 3.0 6 ------- null}
+ -t 0.6908 -s 0 -d 3 -p tcp -e 1040 -c 1 -i 21 -a 1 -x {2.0 3.0 6 ------- null}
- -t 0.6908 -s 0 -d 3 -p tcp -e 1040 -c 1 -i 21 -a 1 -x {2.0 3.0 6 ------- null}
h -t 0.6908 -s 0 -d 3 -p tcp -e 1040 -c 1 -i 21 -a 1 -x {2.0 3.0 -1 ------- null}
r -t 0.69912 -s 1 -d 0 -p tcp -e 1040 -c 0 -i 19 -a 0 -x {1.0 4.0 7 ------- null}
+ -t 0.69912 -s 0 -d 4 -p tcp -e 1040 -c 0 -i 19 -a 0 -x {1.0 4.0 7 ------- null}
r -t 0.69912 -s 2 -d 0 -p tcp -e 1040 -c 1 -i 22 -a 1 -x {2.0 3.0 7 ------- null}
+ -t 0.69912 -s 0 -d 3 -p tcp -e 1040 -c 1 -i 22 -a 1 -x {2.0 3.0 7 ------- null}
- -t 0.69912 -s 0 -d 4 -p tcp -e 1040 -c 0 -i 19 -a 0 -x {1.0 4.0 7 ------- null}
h -t 0.69912 -s 0 -d 4 -p tcp -e 1040 -c 0 -i 19 -a 0 -x {1.0 4.0 -1 ------- null}
- -t 0.69912 -s 0 -d 3 -p tcp -e 1040 -c 1 -i 22 -a 1 -x {2.0 3.0 7 ------- null}
h -t 0.69912 -s 0 -d 3 -p tcp -e 1040 -c 1 -i 22 -a 1 -x {2.0 3.0 -1 ------- null}
r -t 0.70744 -s 1 -d 0 -p tcp -e 1040 -c 0 -i 20 -a 0 -x {1.0 4.0 8 ------- null}
+ -t 0.70744 -s 0 -d 4 -p tcp -e 1040 -c 0 -i 20 -a 0 -x {1.0 4.0 8 ------- null}
r -t 0.70744 -s 2 -d 0 -p tcp -e 1040 -c 1 -i 23 -a 1 -x {2.0 3.0 8 ------- null}
+ -t 0.70744 -s 0 -d 3 -p tcp -e 1040 -c 1 -i 23 -a 1 -x {2.0 3.0 8 ------- null}
- -t 0.70744 -s 0 -d 4 -p tcp -e 1040 -c 0 -i 20 -a 0 -x {1.0 4.0 8 ------- null}
h -t 0.70744 -s 0 -d 4 -p tcp -e 1040 -c 0 -i 20 -a 0 -x {1.0 4.0 -1 ------- null}
- -t 0.70744 -s 0 -d 3 -p tcp -e 1040 -c 1 -i 23 -a 1 -x {2.0 3.0 8 ------- null}
h -t 0.70744 -s 0 -d 3 -p tcp -e 1040 -c 1 -i 23 -a 1 -x {2.0 3.0 -1 ------- null}
r -t 0.70912 -s 0 -d 4 -p tcp -e 1040 -c 0 -i 18 -a 0 -x {1.0 4.0 6 ------- null}
+ -t 0.70912 -s 4 -d 0 -p ack -e 40 -c 0 -i 24 -a 0 -x {4.0 1.0 6 ------- null}
- -t 0.70912 -s 4 -d 0 -p ack -e 40 -c 0 -i 24 -a 0 -x {4.0 1.0 6 ------- null}
h -t 0.70912 -s 4 -d 0 -p ack -e 40 -c 0 -i 24 -a 0 -x {4.0 1.0 -1 ------- null}
r -t 0.70912 -s 0 -d 3 -p tcp -e 1040 -c 1 -i 21 -a 1 -x {2.0 3.0 6 ------- null}
+ -t 0.70912 -s 3 -d 0 -p ack -e 40 -c 1 -i 25 -a 1 -x {3.0 2.0 6 ------- null}
- -t 0.70912 -s 3 -d 0 -p ack -e 40 -c 1 -i 25 -a 1 -x {3.0 2.0 6 ------- null}
h -t 0.70912 -s 3 -d 0 -p ack -e 40 -c 1 -i 25 -a 1 -x {3.0 2.0 -1 ------- null}
r -t 0.71744 -s 0 -d 4 -p tcp -e 1040 -c 0 -i 19 -a 0 -x {1.0 4.0 7 ------- null}
r -t 0.71744 -s 0 -d 3 -p tcp -e 1040 -c 1 -i 22 -a 1 -x {2.0 3.0 7 ------- null}
r -t 0.71944 -s 4 -d 0 -p ack -e 40 -c 0 -i 24 -a 0 -x {4.0 1.0 6 ------- null}
+ -t 0.71944 -s 0 -d 1 -p ack -e 40 -c 0 -i 24 -a 0 -x {4.0 1.0 6 ------- null}
- -t 0.71944 -s 0 -d 1 -p ack -e 40 -c 0 -i 24 -a 0 -x {4.0 1.0 6 ------- null}
h -t 0.71944 -s 0 -d 1 -p ack -e 40 -c 0 -i 24 -a 0 -x {4.0 1.0 -1 ------- null}
r -t 0.71944 -s 3 -d 0 -p ack -e 40 -c 1 -i 25 -a 1 -x {3.0 2.0 6 ------- null}
+ -t 0.71944 -s 0 -d 2 -p ack -e 40 -c 1 -i 25 -a 1 -x {3.0 2.0 6 ------- null}
- -t 0.71944 -s 0 -d 2 -p ack -e 40 -c 1 -i 25 -a 1 -x {3.0 2.0 6 ------- null}
h -t 0.71944 -s 0 -d 2 -p ack -e 40 -c 1 -i 25 -a 1 -x {3.0 2.0 -1 ------- null}
r -t 0.72576 -s 0 -d 4 -p tcp -e 1040 -c 0 -i 20 -a 0 -x {1.0 4.0 8 ------- null}
+ -t 0.72576 -s 4 -d 0 -p ack -e 40 -c 0 -i 26 -a 0 -x {4.0 1.0 8 ------- null}
- -t 0.72576 -s 4 -d 0 -p ack -e 40 -c 0 -i 26 -a 0 -x {4.0 1.0 8 ------- null}
h -t 0.72576 -s 4 -d 0 -p ack -e 40 -c 0 -i 26 -a 0 -x {4.0 1.0 -1 ------- null}
r -t 0.72576 -s 0 -d 3 -p tcp -e 1040 -c 1 -i 23 -a 1 -x {2.0 3.0 8 ------- null}
+ -t 0.72576 -s 3 -d 0 -p ack -e 40 -c 1 -i 27 -a 1 -x {3.0 2.0 8 ------- null}
- -t 0.72576 -s 3 -d 0 -p ack -e 40 -c 1 -i 27 -a 1 -x {3.0 2.0 8 ------- null}
h -t 0.72576 -s 3 -d 0 -p ack -e 40 -c 1 -i 27 -a 1 -x {3.0 2.0 -1 ------- null}
r -t 0.72976 -s 0 -d 1 -p ack -e 40 -c 0 -i 24 -a 0 -x {4.0 1.0 6 ------- null}
+ -t 0.72976 -s 1 -d 0 -p tcp -e 1040 -c 0 -i 28 -a 0 -x {1.0 4.0 9 ------- null}
- -t 0.72976 -s 1 -d 0 -p tcp -e 1040 -c 0 -i 28 -a 0 -x {1.0 4.0 9 ------- null}
h -t 0.72976 -s 1 -d 0 -p tcp -e 1040 -c 0 -i 28 -a 0 -x {1.0 4.0 -1 ------- null}
+ -t 0.72976 -s 1 -d 0 -p tcp -e 1040 -c 0 -i 29 -a 0 -x {1.0 4.0 10 ------- null}
+ -t 0.72976 -s 1 -d 0 -p tcp -e 1040 -c 0 -i 30 -a 0 -x {1.0 4.0 11 ------- null}
r -t 0.72976 -s 0 -d 2 -p ack -e 40 -c 1 -i 25 -a 1 -x {3.0 2.0 6 ------- null}
+ -t 0.72976 -s 2 -d 0 -p tcp -e 1040 -c 1 -i 31 -a 1 -x {2.0 3.0 9 ------- null}
- -t 0.72976 -s 2 -d 0 -p tcp -e 1040 -c 1 -i 31 -a 1 -x {2.0 3.0 9 ------- null}
h -t 0.72976 -s 2 -d 0 -p tcp -e 1040 -c 1 -i 31 -a 1 -x {2.0 3.0 -1 ------- null}
+ -t 0.72976 -s 2 -d 0 -p tcp -e 1040 -c 1 -i 32 -a 1 -x {2.0 3.0 10 ------- null}
+ -t 0.72976 -s 2 -d 0 -p tcp -e 1040 -c 1 -i 33 -a 1 -x {2.0 3.0 11 ------- null}
r -t 0.73608 -s 4 -d 0 -p ack -e 40 -c 0 -i 26 -a 0 -x {4.0 1.0 8 ------- null}
+ -t 0.73608 -s 0 -d 1 -p ack -e 40 -c 0 -i 26 -a 0 -x {4.0 1.0 8 ------- null}
- -t 0.73608 -s 0 -d 1 -p ack -e 40 -c 0 -i 26 -a 0 -x {4.0 1.0 8 ------- null}
h -t 0.73608 -s 0 -d 1 -p ack -e 40 -c 0 -i 26 -a 0 -x {4.0 1.0 -1 ------- null}
r -t 0.73608 -s 3 -d 0 -p ack -e 40 -c 1 -i 27 -a 1 -x {3.0 2.0 8 ------- null}
+ -t 0.73608 -s 0 -d 2 -p ack -e 40 -c 1 -i 27 -a 1 -x {3.0 2.0 8 ------- null}
- -t 0.73608 -s 0 -d 2 -p ack -e 40 -c 1 -i 27 -a 1 -x {3.0 2.0 8 ------- null}
h -t 0.73608 -s 0 -d 2 -p ack -e 40 -c 1 -i 27 -a 1 -x {3.0 2.0 -1 ------- null}
- -t 0.73808 -s 1 -d 0 -p tcp -e 1040 -c 0 -i 29 -a 0 -x {1.0 4.0 10 ------- null}
h -t 0.73808 -s 1 -d 0 -p tcp -e 1040 -c 0 -i 29 -a 0 -x {1.0 4.0 -1 ------- null}
- -t 0.73808 -s 2 -d 0 -p tcp -e 1040 -c 1 -i 32 -a 1 -x {2.0 3.0 10 ------- null}
h -t 0.73808 -s 2 -d 0 -p tcp -e 1040 -c 1 -i 32 -a 1 -x {2.0 3.0 -1 ------- null}
r -t 0.7464 -s 0 -d 1 -p ack -e 40 -c 0 -i 26 -a 0 -x {4.0 1.0 8 ------- null}
+ -t 0.7464 -s 1 -d 0 -p tcp -e 1040 -c 0 -i 34 -a 0 -x {1.0 4.0 12 ------- null}
+ -t 0.7464 -s 1 -d 0 -p tcp -e 1040 -c 0 -i 35 -a 0 -x {1.0 4.0 13 ------- null}
+ -t 0.7464 -s 1 -d 0 -p tcp -e 1040 -c 0 -i 36 -a 0 -x {1.0 4.0 14 ------- null}
r -t 0.7464 -s 0 -d 2 -p ack -e 40 -c 1 -i 27 -a 1 -x {3.0 2.0 8 ------- null}
+ -t 0.7464 -s 2 -d 0 -p tcp -e 1040 -c 1 -i 37 -a 1 -x {2.0 3.0 12 ------- null}
+ -t 0.7464 -s 2 -d 0 -p tcp -e 1040 -c 1 -i 38 -a 1 -x {2.0 3.0 13 ------- null}
+ -t 0.7464 -s 2 -d 0 -p tcp -e 1040 -c 1 -i 39 -a 1 -x {2.0 3.0 14 ------- null}
- -t 0.7464 -s 1 -d 0 -p tcp -e 1040 -c 0 -i 30 -a 0 -x {1.0 4.0 11 ------- null}
h -t 0.7464 -s 1 -d 0 -p tcp -e 1040 -c 0 -i 30 -a 0 -x {1.0 4.0 -1 ------- null}
- -t 0.7464 -s 2 -d 0 -p tcp -e 1040 -c 1 -i 33 -a 1 -x {2.0 3.0 11 ------- null}
h -t 0.7464 -s 2 -d 0 -p tcp -e 1040 -c 1 -i 33 -a 1 -x {2.0 3.0 -1 ------- null}
r -t 0.74808 -s 1 -d 0 -p tcp -e 1040 -c 0 -i 28 -a 0 -x {1.0 4.0 9 ------- null}
+ -t 0.74808 -s 0 -d 4 -p tcp -e 1040 -c 0 -i 28 -a 0 -x {1.0 4.0 9 ------- null}
- -t 0.74808 -s 0 -d 4 -p tcp -e 1040 -c 0 -i 28 -a 0 -x {1.0 4.0 9 ------- null}
h -t 0.74808 -s 0 -d 4 -p tcp -e 1040 -c 0 -i 28 -a 0 -x {1.0 4.0 -1 ------- null}
r -t 0.74808 -s 2 -d 0 -p tcp -e 1040 -c 1 -i 31 -a 1 -x {2.0 3.0 9 ------- null}
+ -t 0.74808 -s 0 -d 3 -p tcp -e 1040 -c 1 -i 31 -a 1 -x {2.0 3.0 9 ------- null}
- -t 0.74808 -s 0 -d 3 -p tcp -e 1040 -c 1 -i 31 -a 1 -x {2.0 3.0 9 ------- null}
h -t 0.74808 -s 0 -d 3 -p tcp -e 1040 -c 1 -i 31 -a 1 -x {2.0 3.0 -1 ------- null}
- -t 0.75472 -s 1 -d 0 -p tcp -e 1040 -c 0 -i 34 -a 0 -x {1.0 4.0 12 ------- null}
h -t 0.75472 -s 1 -d 0 -p tcp -e 1040 -c 0 -i 34 -a 0 -x {1.0 4.0 -1 ------- null}
- -t 0.75472 -s 2 -d 0 -p tcp -e 1040 -c 1 -i 37 -a 1 -x {2.0 3.0 12 ------- null}
h -t 0.75472 -s 2 -d 0 -p tcp -e 1040 -c 1 -i 37 -a 1 -x {2.0 3.0 -1 ------- null}
r -t 0.7564 -s 1 -d 0 -p tcp -e 1040 -c 0 -i 29 -a 0 -x {1.0 4.0 10 ------- null}
+ -t 0.7564 -s 0 -d 4 -p tcp -e 1040 -c 0 -i 29 -a 0 -x {1.0 4.0 10 ------- null}
r -t 0.7564 -s 2 -d 0 -p tcp -e 1040 -c 1 -i 32 -a 1 -x {2.0 3.0 10 ------- null}
+ -t 0.7564 -s 0 -d 3 -p tcp -e 1040 -c 1 -i 32 -a 1 -x {2.0 3.0 10 ------- null}
- -t 0.7564 -s 0 -d 4 -p tcp -e 1040 -c 0 -i 29 -a 0 -x {1.0 4.0 10 ------- null}
h -t 0.7564 -s 0 -d 4 -p tcp -e 1040 -c 0 -i 29 -a 0 -x {1.0 4.0 -1 ------- null}
- -t 0.7564 -s 0 -d 3 -p tcp -e 1040 -c 1 -i 32 -a 1 -x {2.0 3.0 10 ------- null}
h -t 0.7564 -s 0 -d 3 -p tcp -e 1040 -c 1 -i 32 -a 1 -x {2.0 3.0 -1 ------- null}
- -t 0.76304 -s 1 -d 0 -p tcp -e 1040 -c 0 -i 35 -a 0 -x {1.0 4.0 13 ------- null}
h -t 0.76304 -s 1 -d 0 -p tcp -e 1040 -c 0 -i 35 -a 0 -x {1.0 4.0 -1 ------- null}
- -t 0.76304 -s 2 -d 0 -p tcp -e 1040 -c 1 -i 38 -a 1 -x {2.0 3.0 13 ------- null}
h -t 0.76304 -s 2 -d 0 -p tcp -e 1040 -c 1 -i 38 -a 1 -x {2.0 3.0 -1 ------- null}
r -t 0.76472 -s 1 -d 0 -p tcp -e 1040 -c 0 -i 30 -a 0 -x {1.0 4.0 11 ------- null}
+ -t 0.76472 -s 0 -d 4 -p tcp -e 1040 -c 0 -i 30 -a 0 -x {1.0 4.0 11 ------- null}
r -t 0.76472 -s 2 -d 0 -p tcp -e 1040 -c 1 -i 33 -a 1 -x {2.0 3.0 11 ------- null}
+ -t 0.76472 -s 0 -d 3 -p tcp -e 1040 -c 1 -i 33 -a 1 -x {2.0 3.0 11 ------- null}
- -t 0.76472 -s 0 -d 4 -p tcp -e 1040 -c 0 -i 30 -a 0 -x {1.0 4.0 11 ------- null}
h -t 0.76472 -s 0 -d 4 -p tcp -e 1040 -c 0 -i 30 -a 0 -x {1.0 4.0 -1 ------- null}
- -t 0.76472 -s 0 -d 3 -p tcp -e 1040 -c 1 -i 33 -a 1 -x {2.0 3.0 11 ------- null}
h -t 0.76472 -s 0 -d 3 -p tcp -e 1040 -c 1 -i 33 -a 1 -x {2.0 3.0 -1 ------- null}
r -t 0.7664 -s 0 -d 4 -p tcp -e 1040 -c 0 -i 28 -a 0 -x {1.0 4.0 9 ------- null}
r -t 0.7664 -s 0 -d 3 -p tcp -e 1040 -c 1 -i 31 -a 1 -x {2.0 3.0 9 ------- null}
- -t 0.77136 -s 1 -d 0 -p tcp -e 1040 -c 0 -i 36 -a 0 -x {1.0 4.0 14 ------- null}
h -t 0.77136 -s 1 -d 0 -p tcp -e 1040 -c 0 -i 36 -a 0 -x {1.0 4.0 -1 ------- null}
- -t 0.77136 -s 2 -d 0 -p tcp -e 1040 -c 1 -i 39 -a 1 -x {2.0 3.0 14 ------- null}
h -t 0.77136 -s 2 -d 0 -p tcp -e 1040 -c 1 -i 39 -a 1 -x {2.0 3.0 -1 ------- null}
r -t 0.77304 -s 1 -d 0 -p tcp -e 1040 -c 0 -i 34 -a 0 -x {1.0 4.0 12 ------- null}
+ -t 0.77304 -s 0 -d 4 -p tcp -e 1040 -c 0 -i 34 -a 0 -x {1.0 4.0 12 ------- null}
r -t 0.77304 -s 2 -d 0 -p tcp -e 1040 -c 1 -i 37 -a 1 -x {2.0 3.0 12 ------- null}
+ -t 0.77304 -s 0 -d 3 -p tcp -e 1040 -c 1 -i 37 -a 1 -x {2.0 3.0 12 ------- null}
- -t 0.77304 -s 0 -d 4 -p tcp -e 1040 -c 0 -i 34 -a 0 -x {1.0 4.0 12 ------- null}
h -t 0.77304 -s 0 -d 4 -p tcp -e 1040 -c 0 -i 34 -a 0 -x {1.0 4.0 -1 ------- null}
- -t 0.77304 -s 0 -d 3 -p tcp -e 1040 -c 1 -i 37 -a 1 -x {2.0 3.0 12 ------- null}
h -t 0.77304 -s 0 -d 3 -p tcp -e 1040 -c 1 -i 37 -a 1 -x {2.0 3.0 -1 ------- null}
r -t 0.77472 -s 0 -d 4 -p tcp -e 1040 -c 0 -i 29 -a 0 -x {1.0 4.0 10 ------- null}
+ -t 0.77472 -s 4 -d 0 -p ack -e 40 -c 0 -i 40 -a 0 -x {4.0 1.0 10 ------- null}
- -t 0.77472 -s 4 -d 0 -p ack -e 40 -c 0 -i 40 -a 0 -x {4.0 1.0 10 ------- null}
h -t 0.77472 -s 4 -d 0 -p ack -e 40 -c 0 -i 40 -a 0 -x {4.0 1.0 -1 ------- null}
r -t 0.77472 -s 0 -d 3 -p tcp -e 1040 -c 1 -i 32 -a 1 -x {2.0 3.0 10 ------- null}
+ -t 0.77472 -s 3 -d 0 -p ack -e 40 -c 1 -i 41 -a 1 -x {3.0 2.0 10 ------- null}
- -t 0.77472 -s 3 -d 0 -p ack -e 40 -c 1 -i 41 -a 1 -x {3.0 2.0 10 ------- null}
h -t 0.77472 -s 3 -d 0 -p ack -e 40 -c 1 -i 41 -a 1 -x {3.0 2.0 -1 ------- null}
r -t 0.78136 -s 1 -d 0 -p tcp -e 1040 -c 0 -i 35 -a 0 -x {1.0 4.0 13 ------- null}
+ -t 0.78136 -s 0 -d 4 -p tcp -e 1040 -c 0 -i 35 -a 0 -x {1.0 4.0 13 ------- null}
r -t 0.78136 -s 2 -d 0 -p tcp -e 1040 -c 1 -i 38 -a 1 -x {2.0 3.0 13 ------- null}
+ -t 0.78136 -s 0 -d 3 -p tcp -e 1040 -c 1 -i 38 -a 1 -x {2.0 3.0 13 ------- null}
- -t 0.78136 -s 0 -d 4 -p tcp -e 1040 -c 0 -i 35 -a 0 -x {1.0 4.0 13 ------- null}
h -t 0.78136 -s 0 -d 4 -p tcp -e 1040 -c 0 -i 35 -a 0 -x {1.0 4.0 -1 ------- null}
- -t 0.78136 -s 0 -d 3 -p tcp -e 1040 -c 1 -i 38 -a 1 -x {2.0 3.0 13 ------- null}
h -t 0.78136 -s 0 -d 3 -p tcp -e 1040 -c 1 -i 38 -a 1 -x {2.0 3.0 -1 ------- null}
r -t 0.78304 -s 0 -d 4 -p tcp -e 1040 -c 0 -i 30 -a 0 -x {1.0 4.0 11 ------- null}
r -t 0.78304 -s 0 -d 3 -p tcp -e 1040 -c 1 -i 33 -a 1 -x {2.0 3.0 11 ------- null}
r -t 0.78504 -s 4 -d 0 -p ack -e 40 -c 0 -i 40 -a 0 -x {4.0 1.0 10 ------- null}
+ -t 0.78504 -s 0 -d 1 -p ack -e 40 -c 0 -i 40 -a 0 -x {4.0 1.0 10 ------- null}
- -t 0.78504 -s 0 -d 1 -p ack -e 40 -c 0 -i 40 -a 0 -x {4.0 1.0 10 ------- null}
h -t 0.78504 -s 0 -d 1 -p ack -e 40 -c 0 -i 40 -a 0 -x {4.0 1.0 -1 ------- null}
r -t 0.78504 -s 3 -d 0 -p ack -e 40 -c 1 -i 41 -a 1 -x {3.0 2.0 10 ------- null}
+ -t 0.78504 -s 0 -d 2 -p ack -e 40 -c 1 -i 41 -a 1 -x {3.0 2.0 10 ------- null}
- -t 0.78504 -s 0 -d 2 -p ack -e 40 -c 1 -i 41 -a 1 -x {3.0 2.0 10 ------- null}
h -t 0.78504 -s 0 -d 2 -p ack -e 40 -c 1 -i 41 -a 1 -x {3.0 2.0 -1 ------- null}
r -t 0.78968 -s 1 -d 0 -p tcp -e 1040 -c 0 -i 36 -a 0 -x {1.0 4.0 14 ------- null}
+ -t 0.78968 -s 0 -d 4 -p tcp -e 1040 -c 0 -i 36 -a 0 -x {1.0 4.0 14 ------- null}
r -t 0.78968 -s 2 -d 0 -p tcp -e 1040 -c 1 -i 39 -a 1 -x {2.0 3.0 14 ------- null}
+ -t 0.78968 -s 0 -d 3 -p tcp -e 1040 -c 1 -i 39 -a 1 -x {2.0 3.0 14 ------- null}
- -t 0.78968 -s 0 -d 4 -p tcp -e 1040 -c 0 -i 36 -a 0 -x {1.0 4.0 14 ------- null}
h -t 0.78968 -s 0 -d 4 -p tcp -e 1040 -c 0 -i 36 -a 0 -x {1.0 4.0 -1 ------- null}
- -t 0.78968 -s 0 -d 3 -p tcp -e 1040 -c 1 -i 39 -a 1 -x {2.0 3.0 14 ------- null}
h -t 0.78968 -s 0 -d 3 -p tcp -e 1040 -c 1 -i 39 -a 1 -x {2.0 3.0 -1 ------- null}
r -t 0.79136 -s 0 -d 4 -p tcp -e 1040 -c 0 -i 34 -a 0 -x {1.0 4.0 12 ------- null}
+ -t 0.79136 -s 4 -d 0 -p ack -e 40 -c 0 -i 42 -a 0 -x {4.0 1.0 12 ------- null}
- -t 0.79136 -s 4 -d 0 -p ack -e 40 -c 0 -i 42 -a 0 -x {4.0 1.0 12 ------- null}
h -t 0.79136 -s 4 -d 0 -p ack -e 40 -c 0 -i 42 -a 0 -x {4.0 1.0 -1 ------- null}
r -t 0.79136 -s 0 -d 3 -p tcp -e 1040 -c 1 -i 37 -a 1 -x {2.0 3.0 12 ------- null}
+ -t 0.79136 -s 3 -d 0 -p ack -e 40 -c 1 -i 43 -a 1 -x {3.0 2.0 12 ------- null}
- -t 0.79136 -s 3 -d 0 -p ack -e 40 -c 1 -i 43 -a 1 -x {3.0 2.0 12 ------- null}
h -t 0.79136 -s 3 -d 0 -p ack -e 40 -c 1 -i 43 -a 1 -x {3.0 2.0 -1 ------- null}
r -t 0.79536 -s 0 -d 1 -p ack -e 40 -c 0 -i 40 -a 0 -x {4.0 1.0 10 ------- null}
+ -t 0.79536 -s 1 -d 0 -p tcp -e 1040 -c 0 -i 44 -a 0 -x {1.0 4.0 15 ------- null}
- -t 0.79536 -s 1 -d 0 -p tcp -e 1040 -c 0 -i 44 -a 0 -x {1.0 4.0 15 ------- null}
h -t 0.79536 -s 1 -d 0 -p tcp -e 1040 -c 0 -i 44 -a 0 -x {1.0 4.0 -1 ------- null}
+ -t 0.79536 -s 1 -d 0 -p tcp -e 1040 -c 0 -i 45 -a 0 -x {1.0 4.0 16 ------- null}
+ -t 0.79536 -s 1 -d 0 -p tcp -e 1040 -c 0 -i 46 -a 0 -x {1.0 4.0 17 ------- null}
r -t 0.79536 -s 0 -d 2 -p ack -e 40 -c 1 -i 41 -a 1 -x {3.0 2.0 10 ------- null}
+ -t 0.79536 -s 2 -d 0 -p tcp -e 1040 -c 1 -i 47 -a 1 -x {2.0 3.0 15 ------- null}
- -t 0.79536 -s 2 -d 0 -p tcp -e 1040 -c 1 -i 47 -a 1 -x {2.0 3.0 15 ------- null}
h -t 0.79536 -s 2 -d 0 -p tcp -e 1040 -c 1 -i 47 -a 1 -x {2.0 3.0 -1 ------- null}
+ -t 0.79536 -s 2 -d 0 -p tcp -e 1040 -c 1 -i 48 -a 1 -x {2.0 3.0 16 ------- null}
+ -t 0.79536 -s 2 -d 0 -p tcp -e 1040 -c 1 -i 49 -a 1 -x {2.0 3.0 17 ------- null}
r -t 0.79968 -s 0 -d 4 -p tcp -e 1040 -c 0 -i 35 -a 0 -x {1.0 4.0 13 ------- null}
r -t 0.79968 -s 0 -d 3 -p tcp -e 1040 -c 1 -i 38 -a 1 -x {2.0 3.0 13 ------- null}
r -t 0.80168 -s 4 -d 0 -p ack -e 40 -c 0 -i 42 -a 0 -x {4.0 1.0 12 ------- null}
+ -t 0.80168 -s 0 -d 1 -p ack -e 40 -c 0 -i 42 -a 0 -x {4.0 1.0 12 ------- null}
- -t 0.80168 -s 0 -d 1 -p ack -e 40 -c 0 -i 42 -a 0 -x {4.0 1.0 12 ------- null}
h -t 0.80168 -s 0 -d 1 -p ack -e 40 -c 0 -i 42 -a 0 -x {4.0 1.0 -1 ------- null}
r -t 0.80168 -s 3 -d 0 -p ack -e 40 -c 1 -i 43 -a 1 -x {3.0 2.0 12 ------- null}
+ -t 0.80168 -s 0 -d 2 -p ack -e 40 -c 1 -i 43 -a 1 -x {3.0 2.0 12 ------- null}
- -t 0.80168 -s 0 -d 2 -p ack -e 40 -c 1 -i 43 -a 1 -x {3.0 2.0 12 ------- null}
h -t 0.80168 -s 0 -d 2 -p ack -e 40 -c 1 -i 43 -a 1 -x {3.0 2.0 -1 ------- null}
- -t 0.80368 -s 1 -d 0 -p tcp -e 1040 -c 0 -i 45 -a 0 -x {1.0 4.0 16 ------- null}
h -t 0.80368 -s 1 -d 0 -p tcp -e 1040 -c 0 -i 45 -a 0 -x {1.0 4.0 -1 ------- null}